
     Program PWSCF v.6.4.1 starts on  1Jul2021 at 13:43:58 

     This program is part of the open-source Quantum ESPRESSO suite
     for quantum simulation of materials; please cite
         "P. Giannozzi et al., J. Phys.:Condens. Matter 21 395502 (2009);
         "P. Giannozzi et al., J. Phys.:Condens. Matter 29 465901 (2017);
          URL http://www.quantum-espresso.org", 
     in publications or presentations arising from this work. More details at
     http://www.quantum-espresso.org/quote

     Parallel version (MPI), running on    64 processors

     MPI processes distributed on     2 nodes
     R & G space division:  proc/nbgrp/npool/nimage =      64
     Waiting for input...
     Reading input from standard input

     Current dimensions of program PWSCF are:
     Max number of different atomic species (ntypx) = 10
     Max number of k-points (npk) =  40000
     Max angular momentum in pseudopotentials (lmaxx) =  3
               file N.pbe-n-kjpaw_psl.1.0.0.UPF: wavefunction(s)  2S renormalized
               file C.pbe-n-kjpaw_psl.1.0.0.UPF: wavefunction(s)  2S 2P renormalized
               file C.pbe-n-kjpaw_psl.1.0.0.UPF: wavefunction(s)  2S 2P renormalized
               file C.pbe-n-kjpaw_psl.1.0.0.UPF: wavefunction(s)  2S 2P renormalized

     --------------------------------------------
     Parameters for DFT-D3 Dispersion Correction:
     --------------------------------------------
       Reference C6 values for interpolation: 

         atom   Coordination number   C6
         B          0.000           214.36
         B          0.971           150.74
         B          1.944           106.23
         B          2.913            62.89
         B          4.586            56.06
         C1         0.000            98.23
         C1         0.987            86.49
         C1         1.998            58.72
         C1         2.999            51.56
         C1         3.984            36.41
         C2         0.000            98.23
         C2         0.987            86.49
         C2         1.998            58.72
         C2         2.999            51.56
         C2         3.984            36.41
         C3         0.000            98.23
         C3         0.987            86.49
         C3         1.998            58.72
         C3         2.999            51.56
         C3         3.984            36.41
         N          0.000            50.54
         N          0.994            44.25
         N          2.014            39.35
         N          2.990            31.16

       Values used:

         atom   Coordination number  R0_AB[au]  C6      C8
         B          3.323            3.039     62.90   2506.30
         B          3.323            3.039     62.90   2506.30
         B          3.323            3.039     62.90   2506.30
         B          3.323            3.039     62.90   2506.31
         B          3.323            3.039     62.90   2506.30
         B          3.323            3.039     62.90   2506.30
         B          3.323            3.039     62.90   2506.30
         B          3.323            3.039     62.90   2506.30
         B          3.323            3.039     62.90   2506.30
         B          3.325            3.039     62.90   2506.25
         B          3.323            3.039     62.90   2506.30
         B          3.323            3.039     62.90   2506.30
         B          3.323            3.039     62.90   2506.30
         B          3.323            3.039     62.90   2506.30
         B          3.323            3.039     62.90   2506.30
         B          3.323            3.039     62.90   2506.30
         B          3.317            3.039     62.90   2506.45
         B          3.319            3.039     62.90   2506.40
         B          3.323            3.039     62.90   2506.29
         B          3.323            3.039     62.90   2506.30
         B          3.323            3.039     62.90   2506.30
         B          3.323            3.039     62.90   2506.30
         B          3.323            3.039     62.90   2506.30
         B          3.317            3.039     62.90   2506.43
         C2         3.274            2.750     49.03   1417.98
         B          3.319            3.039     62.90   2506.40
         B          3.323            3.039     62.90   2506.30
         B          3.323            3.039     62.90   2506.31
         B          3.323            3.039     62.90   2506.30
         B          3.323            3.039     62.90   2506.30
         B          3.323            3.039     62.90   2506.30
         B          3.317            3.039     62.90   2506.43
         B          3.317            3.039     62.90   2506.45
         B          3.325            3.039     62.90   2506.25
         B          3.323            3.039     62.90   2506.30
         B          3.323            3.039     62.90   2506.30
         B          3.323            3.039     62.90   2506.30
         B          3.323            3.039     62.90   2506.30
         B          3.323            3.039     62.90   2506.30
         B          3.323            3.039     62.90   2506.30
         B          3.323            3.039     62.90   2506.30
         B          3.323            3.039     62.90   2506.30
         B          3.323            3.039     62.90   2506.30
         B          3.323            3.039     62.90   2506.30
         B          3.323            3.039     62.90   2506.30
         B          3.323            3.039     62.90   2506.30
         B          3.323            3.039     62.90   2506.30
         B          3.323            3.039     62.90   2506.30
         B          3.323            3.039     62.90   2506.30
         N          3.129            2.478     31.22    688.75
         N          3.129            2.478     31.22    688.75
         N          3.129            2.478     31.22    688.75
         N          3.129            2.478     31.22    688.75
         N          3.129            2.478     31.22    688.75
         N          3.129            2.478     31.22    688.75
         N          3.129            2.478     31.22    688.75
         N          3.129            2.478     31.22    688.75
         N          3.129            2.478     31.22    688.75
         N          3.136            2.478     31.22    688.68
         N          3.136            2.478     31.22    688.68
         N          3.129            2.478     31.22    688.75
         N          3.129            2.478     31.22    688.75
         N          3.129            2.478     31.22    688.75
         N          3.129            2.478     31.22    688.75
         N          3.129            2.478     31.22    688.75
         N          3.135            2.478     31.22    688.68
         C1         3.195            2.750     50.11   1449.31
         N          3.143            2.478     31.21    688.62
         N          3.129            2.478     31.22    688.75
         N          3.129            2.478     31.22    688.75
         N          3.129            2.478     31.22    688.75
         N          3.129            2.478     31.22    688.75
         N          3.129            2.478     31.22    688.75
         N          3.143            2.478     31.21    688.62
         C3         3.195            2.750     50.11   1449.31
         N          3.136            2.478     31.22    688.68
         N          3.129            2.478     31.22    688.75
         N          3.129            2.478     31.22    688.75
         N          3.129            2.478     31.22    688.75
         N          3.129            2.478     31.22    688.75
         N          3.129            2.478     31.22    688.75
         N          3.135            2.478     31.22    688.68
         N          3.136            2.478     31.22    688.68
         N          3.129            2.478     31.22    688.75
         N          3.129            2.478     31.22    688.75
         N          3.129            2.478     31.22    688.75
         N          3.129            2.478     31.22    688.75
         N          3.129            2.478     31.22    688.75
         N          3.129            2.478     31.22    688.75
         N          3.129            2.478     31.22    688.75
         N          3.129            2.478     31.22    688.75
         N          3.129            2.478     31.22    688.75
         N          3.129            2.478     31.22    688.75
         N          3.129            2.478     31.22    688.75
         N          3.129            2.478     31.22    688.75
         N          3.129            2.478     31.22    688.75
         N          3.129            2.478     31.22    688.75
         N          3.129            2.478     31.22    688.75

         Molecular C6 ( Ry / a.u.^6 ) =    437644.59


     gamma-point specific algorithms are used

     Subspace diagonalization in iterative solution of the eigenvalue problem:
     one sub-group per band group will be used
     scalapack distributed-memory algorithm (size of sub-group:  5*  5 procs)

     Message from routine setup:
     DEPRECATED: symmetry with ibrav=0, use correct ibrav instead
 
     Parallelization info
     --------------------
     sticks:   dense  smooth     PW     G-vecs:    dense   smooth      PW
     Min         188     188     46                19260    19260    2398
     Max         190     190     48                19286    19286    2416
     Sum       12145   12145   3049              1233789  1233789  154157
 


     bravais-lattice index     =            0
     lattice parameter (alat)  =      33.2346  a.u.
     unit-cell volume          =   36104.5892 (a.u.)^3
     number of atoms/cell      =           98
     number of atomic types    =            5
     number of electrons       =       391.00
     number of Kohn-Sham states=          245
     kinetic-energy cutoff     =      40.0000  Ry
     charge density cutoff     =     160.0000  Ry
     convergence threshold     =      1.0E-06
     mixing beta               =       0.7000
     number of iterations used =            8  plain     mixing
     Exchange-correlation      = SLA PW PBX PBC ( 1  4  3  4 0 0)
     Using LIBXC version       =    4   3   4
     nstep                     =           50


     celldm(1)=  33.234611  celldm(2)=   0.000000  celldm(3)=   0.000000
     celldm(4)=   0.000000  celldm(5)=   0.000000  celldm(6)=   0.000000

     crystal axes: (cart. coord. in units of alat)
               a(1) = (   0.999334   0.000000   0.000000 )  
               a(2) = (  -0.499667   0.865449   0.000000 )  
               a(3) = (   0.000000   0.000000   1.137204 )  

     reciprocal axes: (cart. coord. in units 2 pi/alat)
               b(1) = (  1.000666  0.577735  0.000000 )  
               b(2) = (  0.000000  1.155470  0.000000 )  
               b(3) = (  0.000000  0.000000  0.879350 )  


     PseudoPot. # 1 for B  read from file:
     ./pseudo/B.pbe-n-kjpaw_psl.1.0.0.UPF
     MD5 check sum: 8c825a5969375aca5c2c6ad5945b3059
     Pseudo is Projector augmented-wave + core cor, Zval =  3.0
     Generated using "atomic" code by A. Dal Corso v.6.3
     Shape of augmentation charge: PSQ
     Using radial grid of 1059 points,  4 beta functions with: 
                l(1) =   0
                l(2) =   0
                l(3) =   1
                l(4) =   1
     Q(r) pseudized with 0 coefficients 


     PseudoPot. # 2 for N  read from file:
     ./pseudo/N.pbe-n-kjpaw_psl.1.0.0.UPF
     MD5 check sum: 14c48229446f9f2d411169a3abcbc3fa
     Pseudo is Projector augmented-wave + core cor, Zval =  5.0
     Generated using "atomic" code by A. Dal Corso v.6.3
     Shape of augmentation charge: PSQ
     Using radial grid of 1085 points,  4 beta functions with: 
                l(1) =   0
                l(2) =   0
                l(3) =   1
                l(4) =   1
     Q(r) pseudized with 0 coefficients 


     PseudoPot. # 3 for C  read from file:
     ./pseudo/C.pbe-n-kjpaw_psl.1.0.0.UPF
     MD5 check sum: 5f16ad9a65e90284d1d834d4ab3b0f7d
     Pseudo is Projector augmented-wave + core cor, Zval =  4.0
     Generated using "atomic" code by A. Dal Corso v.6.3
     Shape of augmentation charge: PSQ
     Using radial grid of 1073 points,  4 beta functions with: 
                l(1) =   0
                l(2) =   0
                l(3) =   1
                l(4) =   1
     Q(r) pseudized with 0 coefficients 


     PseudoPot. # 4 for C  read from file:
     ./pseudo/C.pbe-n-kjpaw_psl.1.0.0.UPF
     MD5 check sum: 5f16ad9a65e90284d1d834d4ab3b0f7d
     Pseudo is Projector augmented-wave + core cor, Zval =  4.0
     Generated using "atomic" code by A. Dal Corso v.6.3
     Shape of augmentation charge: PSQ
     Using radial grid of 1073 points,  4 beta functions with: 
                l(1) =   0
                l(2) =   0
                l(3) =   1
                l(4) =   1
     Q(r) pseudized with 0 coefficients 


     PseudoPot. # 5 for C  read from file:
     ./pseudo/C.pbe-n-kjpaw_psl.1.0.0.UPF
     MD5 check sum: 5f16ad9a65e90284d1d834d4ab3b0f7d
     Pseudo is Projector augmented-wave + core cor, Zval =  4.0
     Generated using "atomic" code by A. Dal Corso v.6.3
     Shape of augmentation charge: PSQ
     Using radial grid of 1073 points,  4 beta functions with: 
                l(1) =   0
                l(2) =   0
                l(3) =   1
                l(4) =   1
     Q(r) pseudized with 0 coefficients 


     atomic species   valence    mass     pseudopotential
        B              3.00    10.00000     B ( 1.00)
        N              5.00    14.00000     N ( 1.00)
        C1             4.00    12.00000     C ( 1.00)
        C2             4.00    12.00000     C ( 1.00)
        C3             4.00    12.00000     C ( 1.00)

     Starting magnetic structure 
     atomic species   magnetization
        B            0.000
        N            0.000
        C1           1.000
        C2           0.000
        C3           0.000

      2 Sym. Ops. (no inversion) found



   Cartesian axes

     site n.     atom                  positions (alat units)
         1           B   tau(   1) = (  -0.0000000   0.0824309   0.5686018  )
         2           B   tau(   2) = (  -0.0713829   0.2060622   0.5686018  )
         3           B   tau(   3) = (  -0.1427568   0.3296890   0.5686018  )
         4           B   tau(   4) = (  -0.2141395   0.4533331   0.5686018  )
         5           B   tau(   5) = (  -0.2855266   0.5769736   0.5686018  )
         6           B   tau(   6) = (  -0.3569036   0.7005986   0.5686018  )
         7           B   tau(   7) = (  -0.4282799   0.8242336   0.5686018  )
         8           B   tau(   8) = (   0.1427700   0.0824283   0.5686018  )
         9           B   tau(   9) = (   0.0713829   0.2060622   0.5686018  )
        10           B   tau(  10) = (  -0.0000000   0.3296942   0.5686018  )
        11           B   tau(  11) = (  -0.0713745   0.4533335   0.5686018  )
        12           B   tau(  12) = (  -0.1427567   0.5769711   0.5686018  )
        13           B   tau(  13) = (  -0.2141437   0.7006019   0.5686018  )
        14           B   tau(  14) = (  -0.2855207   0.8242373   0.5686018  )
        15           B   tau(  15) = (   0.2855205   0.0824268   0.5686018  )
        16           B   tau(  16) = (   0.2141440   0.2060546   0.5686018  )
        17           B   tau(  17) = (   0.1427568   0.3296890   0.5686018  )
        18           B   tau(  18) = (   0.0713735   0.4533335   0.5686018  )
        19           B   tau(  19) = (  -0.0000005   0.5769663   0.5686018  )
        20           B   tau(  20) = (  -0.0713827   0.7005944   0.5686018  )
        21           B   tau(  21) = (  -0.1427698   0.8242355   0.5686018  )
        22           B   tau(  22) = (   0.4282797   0.0824299   0.5686018  )
        23           B   tau(  23) = (   0.3569027   0.2060579   0.5686018  )
        24           B   tau(  24) = (   0.2855263   0.3296861   0.5686018  )
        25           C2  tau(  25) = (   0.2141385   0.4533331   0.5686018  )
        26           B   tau(  26) = (   0.1427557   0.5769711   0.5686018  )
        27           B   tau(  27) = (   0.0713817   0.7005944   0.5686018  )
        28           B   tau(  28) = (  -0.0000005   0.8242327   0.5686018  )
        29           B   tau(  29) = (   0.5710548   0.0824299   0.5686018  )
        30           B   tau(  30) = (   0.4996677   0.2060636   0.5686018  )
        31           B   tau(  31) = (   0.4282907   0.3296923   0.5686018  )
        32           B   tau(  32) = (   0.3569138   0.4533330   0.5686018  )
        33           B   tau(  33) = (   0.2855266   0.5769736   0.5686018  )
        34           B   tau(  34) = (   0.2141437   0.7006019   0.5686018  )
        35           B   tau(  35) = (   0.1427698   0.8242355   0.5686018  )
        36           B   tau(  36) = (   0.7138140   0.0824268   0.5686018  )
        37           B   tau(  37) = (   0.6424318   0.2060579   0.5686018  )
        38           B   tau(  38) = (   0.5710448   0.3296923   0.5686018  )
        39           B   tau(  39) = (   0.4996672   0.4533333   0.5686018  )
        40           B   tau(  40) = (   0.4282907   0.5769676   0.5686018  )
        41           B   tau(  41) = (   0.3569036   0.7005986   0.5686018  )
        42           B   tau(  42) = (   0.2855207   0.8242373   0.5686018  )
        43           B   tau(  43) = (   0.8565645   0.0824283   0.5686018  )
        44           B   tau(  44) = (   0.7851905   0.2060546   0.5686018  )
        45           B   tau(  45) = (   0.7138082   0.3296861   0.5686018  )
        46           B   tau(  46) = (   0.6424207   0.4533330   0.5686018  )
        47           B   tau(  47) = (   0.5710438   0.5769676   0.5686018  )
        48           B   tau(  48) = (   0.4996672   0.7005925   0.5686018  )
        49           B   tau(  49) = (   0.4282799   0.8242336   0.5686018  )
        50           N   tau(  50) = (   0.0713853   0.0412143   0.5686018  )
        51           N   tau(  51) = (   0.0000000   0.1648537   0.5686018  )
        52           N   tau(  52) = (  -0.0713781   0.2884819   0.5686018  )
        53           N   tau(  53) = (  -0.1427563   0.4121169   0.5686018  )
        54           N   tau(  54) = (  -0.2141417   0.5357601   0.5686018  )
        55           N   tau(  55) = (  -0.2855237   0.6593929   0.5686018  )
        56           N   tau(  56) = (  -0.3568998   0.7830222   0.5686018  )
        57           N   tau(  57) = (   0.2141455   0.0412121   0.5686018  )
        58           N   tau(  58) = (   0.1427635   0.1648494   0.5686018  )
        59           N   tau(  59) = (   0.0713781   0.2884819   0.5686018  )
        60           N   tau(  60) = (   0.0000000   0.4121169   0.5686018  )
        61           N   tau(  61) = (  -0.0713787   0.5357561   0.5686018  )
        62           N   tau(  62) = (  -0.1427636   0.6593906   0.5686018  )
        63           N   tau(  63) = (  -0.2141456   0.7830234   0.5686018  )
        64           N   tau(  64) = (   0.3568998   0.0412132   0.5686018  )
        65           N   tau(  65) = (   0.2855237   0.1648472   0.5686018  )
        66           N   tau(  66) = (   0.2141416   0.2884777   0.5686018  )
        67           C1  tau(  67) = (   0.1427563   0.4121169   0.5686018  )
        68           N   tau(  68) = (   0.0713777   0.5357561   0.5686018  )
        69           N   tau(  69) = (  -0.0000005   0.6593868   0.5686018  )
        70           N   tau(  70) = (  -0.0713854   0.7830212   0.5686018  )
        71           N   tau(  71) = (   0.4996677   0.0412149   0.5686018  )
        72           N   tau(  72) = (   0.4282857   0.1648522   0.5686018  )
        73           N   tau(  73) = (   0.3569096   0.2884793   0.5686018  )
        74           N   tau(  74) = (   0.2855275   0.4121166   0.5686018  )
        75           C3  tau(  75) = (   0.2141417   0.5357601   0.5686018  )
        76           N   tau(  76) = (   0.1427636   0.6593906   0.5686018  )
        77           N   tau(  77) = (   0.0713854   0.7830212   0.5686018  )
        78           N   tau(  78) = (   0.6424346   0.0412132   0.5686018  )
        79           N   tau(  79) = (   0.5710498   0.1648522   0.5686018  )
        80           N   tau(  80) = (   0.4996677   0.2884827   0.5686018  )
        81           N   tau(  81) = (   0.4282916   0.4121166   0.5686018  )
        82           N   tau(  82) = (   0.3569090   0.5357581   0.5686018  )
        83           N   tau(  83) = (   0.2855237   0.6593929   0.5686018  )
        84           N   tau(  84) = (   0.2141456   0.7830234   0.5686018  )
        85           N   tau(  85) = (   0.7851890   0.0412121   0.5686018  )
        86           N   tau(  86) = (   0.7138108   0.1648472   0.5686018  )
        87           N   tau(  87) = (   0.6424259   0.2884793   0.5686018  )
        88           N   tau(  88) = (   0.5710439   0.4121166   0.5686018  )
        89           N   tau(  89) = (   0.4996672   0.5357547   0.5686018  )
        90           N   tau(  90) = (   0.4282852   0.6593876   0.5686018  )
        91           N   tau(  91) = (   0.3568998   0.7830222   0.5686018  )
        92           N   tau(  92) = (   0.9279491   0.0412143   0.5686018  )
        93           N   tau(  93) = (   0.8565710   0.1648494   0.5686018  )
        94           N   tau(  94) = (   0.7851929   0.2884777   0.5686018  )
        95           N   tau(  95) = (   0.7138080   0.4121166   0.5686018  )
        96           N   tau(  96) = (   0.6424255   0.5357581   0.5686018  )
        97           N   tau(  97) = (   0.5710493   0.6593876   0.5686018  )
        98           N   tau(  98) = (   0.4996672   0.7830203   0.5686018  )

     number of k points=     1
                       cart. coord. in units 2pi/alat
        k(    1) = (   0.0000000   0.0000000   0.0000000), wk =   1.0000000

     Dense  grid:   616895 G-vectors     FFT dimensions: ( 135, 135, 160)

     Occupations read from input 

      Spin-up

        1.0000   1.0000   1.0000   1.0000   1.0000   1.0000   1.0000   1.0000
        1.0000   1.0000   1.0000   1.0000   1.0000   1.0000   1.0000   1.0000
        1.0000   1.0000   1.0000   1.0000   1.0000   1.0000   1.0000   1.0000
        1.0000   1.0000   1.0000   1.0000   1.0000   1.0000   1.0000   1.0000
        1.0000   1.0000   1.0000   1.0000   1.0000   1.0000   1.0000   1.0000
        1.0000   1.0000   1.0000   1.0000   1.0000   1.0000   1.0000   1.0000
        1.0000   1.0000   1.0000   1.0000   1.0000   1.0000   1.0000   1.0000
        1.0000   1.0000   1.0000   1.0000   1.0000   1.0000   1.0000   1.0000
        1.0000   1.0000   1.0000   1.0000   1.0000   1.0000   1.0000   1.0000
        1.0000   1.0000   1.0000   1.0000   1.0000   1.0000   1.0000   1.0000
        1.0000   1.0000   1.0000   1.0000   1.0000   1.0000   1.0000   1.0000
        1.0000   1.0000   1.0000   1.0000   1.0000   1.0000   1.0000   1.0000
        1.0000   1.0000   1.0000   1.0000   1.0000   1.0000   1.0000   1.0000
        1.0000   1.0000   1.0000   1.0000   1.0000   1.0000   1.0000   1.0000
        1.0000   1.0000   1.0000   1.0000   1.0000   1.0000   1.0000   1.0000
        1.0000   1.0000   1.0000   1.0000   1.0000   1.0000   1.0000   1.0000
        1.0000   1.0000   1.0000   1.0000   1.0000   1.0000   1.0000   1.0000
        1.0000   1.0000   1.0000   1.0000   1.0000   1.0000   1.0000   1.0000
        1.0000   1.0000   1.0000   1.0000   1.0000   1.0000   1.0000   1.0000
        1.0000   1.0000   1.0000   1.0000   1.0000   1.0000   1.0000   1.0000
        1.0000   1.0000   1.0000   1.0000   1.0000   1.0000   1.0000   1.0000
        1.0000   1.0000   1.0000   1.0000   1.0000   1.0000   1.0000   1.0000
        1.0000   1.0000   1.0000   1.0000   1.0000   1.0000   1.0000   1.0000
        1.0000   1.0000   1.0000   1.0000   1.0000   1.0000   1.0000   1.0000
        1.0000   1.0000   0.0000   1.0000   1.0000   0.0000   0.0000   0.0000
        0.0000   0.0000   0.0000   0.0000   0.0000   0.0000   0.0000   0.0000
        0.0000   0.0000   0.0000   0.0000   0.0000   0.0000   0.0000   0.0000
        0.0000   0.0000   0.0000   0.0000   0.0000   0.0000   0.0000   0.0000
        0.0000   0.0000   0.0000   0.0000   0.0000   0.0000   0.0000   0.0000
        0.0000   0.0000   0.0000   0.0000   0.0000   0.0000   0.0000   0.0000
        0.0000   0.0000   0.0000   0.0000   0.0000

      Spin-down

        1.0000   1.0000   1.0000   1.0000   1.0000   1.0000   1.0000   1.0000
        1.0000   1.0000   1.0000   1.0000   1.0000   1.0000   1.0000   1.0000
        1.0000   1.0000   1.0000   1.0000   1.0000   1.0000   1.0000   1.0000
        1.0000   1.0000   1.0000   1.0000   1.0000   1.0000   1.0000   1.0000
        1.0000   1.0000   1.0000   1.0000   1.0000   1.0000   1.0000   1.0000
        1.0000   1.0000   1.0000   1.0000   1.0000   1.0000   1.0000   1.0000
        1.0000   1.0000   1.0000   1.0000   1.0000   1.0000   1.0000   1.0000
        1.0000   1.0000   1.0000   1.0000   1.0000   1.0000   1.0000   1.0000
        1.0000   1.0000   1.0000   1.0000   1.0000   1.0000   1.0000   1.0000
        1.0000   1.0000   1.0000   1.0000   1.0000   1.0000   1.0000   1.0000
        1.0000   1.0000   1.0000   1.0000   1.0000   1.0000   1.0000   1.0000
        1.0000   1.0000   1.0000   1.0000   1.0000   1.0000   1.0000   1.0000
        1.0000   1.0000   1.0000   1.0000   1.0000   1.0000   1.0000   1.0000
        1.0000   1.0000   1.0000   1.0000   1.0000   1.0000   1.0000   1.0000
        1.0000   1.0000   1.0000   1.0000   1.0000   1.0000   1.0000   1.0000
        1.0000   1.0000   1.0000   1.0000   1.0000   1.0000   1.0000   1.0000
        1.0000   1.0000   1.0000   1.0000   1.0000   1.0000   1.0000   1.0000
        1.0000   1.0000   1.0000   1.0000   1.0000   1.0000   1.0000   1.0000
        1.0000   1.0000   1.0000   1.0000   1.0000   1.0000   1.0000   1.0000
        1.0000   1.0000   1.0000   1.0000   1.0000   1.0000   1.0000   1.0000
        1.0000   1.0000   1.0000   1.0000   1.0000   1.0000   1.0000   1.0000
        1.0000   1.0000   1.0000   1.0000   1.0000   1.0000   1.0000   1.0000
        1.0000   1.0000   1.0000   1.0000   1.0000   1.0000   1.0000   1.0000
        1.0000   1.0000   1.0000   1.0000   1.0000   1.0000   1.0000   1.0000
        1.0000   1.0000   1.0000   0.0000   0.0000   0.0000   0.0000   0.0000
        0.0000   0.0000   0.0000   0.0000   0.0000   0.0000   0.0000   0.0000
        0.0000   0.0000   0.0000   0.0000   0.0000   0.0000   0.0000   0.0000
        0.0000   0.0000   0.0000   0.0000   0.0000   0.0000   0.0000   0.0000
        0.0000   0.0000   0.0000   0.0000   0.0000   0.0000   0.0000   0.0000
        0.0000   0.0000   0.0000   0.0000   0.0000   0.0000   0.0000   0.0000
        0.0000   0.0000   0.0000   0.0000   0.0000

     Estimated max dynamical RAM per process >     122.14 MB

     Estimated total dynamical RAM >       7.63 GB
     Generating pointlists ...
     new r_m :   0.0340 (alat units)  1.1299 (a.u.) for type    1
     new r_m :   0.0340 (alat units)  1.1299 (a.u.) for type    2
     new r_m :   0.0340 (alat units)  1.1300 (a.u.) for type    3
     new r_m :   0.0340 (alat units)  1.1300 (a.u.) for type    4
     new r_m :   0.0340 (alat units)  1.1300 (a.u.) for type    5

     Check: negative core charge=   -0.000006

     Initial potential from superposition of free atoms

     starting charge  390.98597, renormalised to  391.00000

     negative rho (up, down):  5.431E-02 5.945E-02
     Starting wfcs are  392 randomized atomic wfcs
     Checking if some PAW data can be deallocated... 

     total cpu time spent up to now is        7.3 secs

     Self-consistent Calculation

     iteration #  1     ecut=    40.00 Ry     beta= 0.70
     CG style diagonalization
     ethr =  1.00E-02,  avg # of iterations =  3.1

     negative rho (up, down):  3.274E-01 1.169E-02

     total cpu time spent up to now is       42.8 secs

     total energy              =   -1933.12090238 Ry
     Harris-Foulkes estimate   =   -1946.26689907 Ry
     estimated scf accuracy    <      19.93381916 Ry

     total magnetization       =     1.00 Bohr mag/cell
     absolute magnetization    =     2.44 Bohr mag/cell

     iteration #  2     ecut=    40.00 Ry     beta= 0.70
     CG style diagonalization
     ethr =  5.10E-03,  avg # of iterations =  4.1

     negative rho (up, down):  3.625E-01 1.085E-02

     total cpu time spent up to now is       78.0 secs

     total energy              =   -1937.04428745 Ry
     Harris-Foulkes estimate   =   -1943.72256829 Ry
     estimated scf accuracy    <      13.06573836 Ry

     total magnetization       =     1.00 Bohr mag/cell
     absolute magnetization    =     2.82 Bohr mag/cell

     iteration #  3     ecut=    40.00 Ry     beta= 0.70
     CG style diagonalization
     ethr =  3.34E-03,  avg # of iterations =  3.7

     negative rho (up, down):  3.991E-01 1.139E-02

     total cpu time spent up to now is      110.0 secs

     total energy              =   -1939.36804107 Ry
     Harris-Foulkes estimate   =   -1940.50872195 Ry
     estimated scf accuracy    <       2.31885919 Ry

     total magnetization       =     1.00 Bohr mag/cell
     absolute magnetization    =     2.85 Bohr mag/cell

     iteration #  4     ecut=    40.00 Ry     beta= 0.70
     CG style diagonalization
     ethr =  5.93E-04,  avg # of iterations =  3.8

     negative rho (up, down):  4.519E-01 1.137E-02

     total cpu time spent up to now is      142.5 secs

     total energy              =   -1939.97572402 Ry
     Harris-Foulkes estimate   =   -1940.34996077 Ry
     estimated scf accuracy    <       1.12522915 Ry

     total magnetization       =     1.00 Bohr mag/cell
     absolute magnetization    =     2.52 Bohr mag/cell

     iteration #  5     ecut=    40.00 Ry     beta= 0.70
     CG style diagonalization
     ethr =  2.88E-04,  avg # of iterations =  3.2

     negative rho (up, down):  4.177E-01 4.203E-02

     total cpu time spent up to now is      168.9 secs

     total energy              =   -1940.06297311 Ry
     Harris-Foulkes estimate   =   -1940.18255658 Ry
     estimated scf accuracy    <       0.44803361 Ry

     total magnetization       =     1.00 Bohr mag/cell
     absolute magnetization    =     2.49 Bohr mag/cell

     iteration #  6     ecut=    40.00 Ry     beta= 0.70
     CG style diagonalization
     c_bands:  1 eigenvalues not converged
     c_bands:  3 eigenvalues not converged
     ethr =  1.15E-04,  avg # of iterations =  3.3

     negative rho (up, down):  4.199E-01 4.397E-02

     total cpu time spent up to now is      196.2 secs

     total energy              =   -1940.10451350 Ry
     Harris-Foulkes estimate   =   -1940.14916136 Ry
     estimated scf accuracy    <       0.24856719 Ry

     total magnetization       =     1.00 Bohr mag/cell
     absolute magnetization    =     2.89 Bohr mag/cell

     iteration #  7     ecut=    40.00 Ry     beta= 0.70
     CG style diagonalization
     ethr =  6.36E-05,  avg # of iterations =  3.1

     negative rho (up, down):  4.437E-01 3.125E-02

     total cpu time spent up to now is      220.7 secs

     total energy              =   -1940.12890637 Ry
     Harris-Foulkes estimate   =   -1940.13474530 Ry
     estimated scf accuracy    <       0.02658097 Ry

     total magnetization       =     1.00 Bohr mag/cell
     absolute magnetization    =     2.34 Bohr mag/cell

     iteration #  8     ecut=    40.00 Ry     beta= 0.70
     CG style diagonalization
     c_bands:  2 eigenvalues not converged
     c_bands:  5 eigenvalues not converged
     ethr =  6.80E-06,  avg # of iterations =  6.3

     negative rho (up, down):  4.626E-01 2.218E-02

     total cpu time spent up to now is      275.8 secs

     total energy              =   -1940.13354289 Ry
     Harris-Foulkes estimate   =   -1940.13468859 Ry
     estimated scf accuracy    <       0.00798580 Ry

     total magnetization       =     1.00 Bohr mag/cell
     absolute magnetization    =     2.37 Bohr mag/cell

     iteration #  9     ecut=    40.00 Ry     beta= 0.70
     CG style diagonalization
     c_bands:  3 eigenvalues not converged
     c_bands:  1 eigenvalues not converged
     ethr =  2.04E-06,  avg # of iterations =  7.7

     negative rho (up, down):  4.731E-01 1.676E-02

     total cpu time spent up to now is      340.9 secs

     total energy              =   -1940.13525871 Ry
     Harris-Foulkes estimate   =   -1940.13637105 Ry
     estimated scf accuracy    <       0.00491928 Ry

     total magnetization       =     1.00 Bohr mag/cell
     absolute magnetization    =     2.37 Bohr mag/cell

     iteration # 10     ecut=    40.00 Ry     beta= 0.70
     CG style diagonalization
     c_bands:  1 eigenvalues not converged
     c_bands:  1 eigenvalues not converged
     ethr =  1.26E-06,  avg # of iterations =  3.5

     negative rho (up, down):  4.809E-01 1.369E-02

     total cpu time spent up to now is      370.7 secs

     total energy              =   -1940.13606846 Ry
     Harris-Foulkes estimate   =   -1940.13664069 Ry
     estimated scf accuracy    <       0.00273581 Ry

     total magnetization       =     1.00 Bohr mag/cell
     absolute magnetization    =     2.38 Bohr mag/cell

     iteration # 11     ecut=    40.00 Ry     beta= 0.70
     CG style diagonalization
     ethr =  7.00E-07,  avg # of iterations =  3.3

     negative rho (up, down):  4.823E-01 1.308E-02

     total cpu time spent up to now is      397.3 secs

     total energy              =   -1940.13645760 Ry
     Harris-Foulkes estimate   =   -1940.13669260 Ry
     estimated scf accuracy    <       0.00075034 Ry

     total magnetization       =     1.00 Bohr mag/cell
     absolute magnetization    =     2.40 Bohr mag/cell

     iteration # 12     ecut=    40.00 Ry     beta= 0.70
     CG style diagonalization
     ethr =  1.92E-07,  avg # of iterations =  3.3

     negative rho (up, down):  4.860E-01 1.273E-02

     total cpu time spent up to now is      424.8 secs

     total energy              =   -1940.13667925 Ry
     Harris-Foulkes estimate   =   -1940.13665330 Ry
     estimated scf accuracy    <       0.00017669 Ry

     total magnetization       =     1.00 Bohr mag/cell
     absolute magnetization    =     2.41 Bohr mag/cell

     iteration # 13     ecut=    40.00 Ry     beta= 0.70
     CG style diagonalization
     ethr =  4.52E-08,  avg # of iterations =  3.5

     negative rho (up, down):  4.865E-01 1.282E-02

     total cpu time spent up to now is      454.3 secs

     total energy              =   -1940.13672876 Ry
     Harris-Foulkes estimate   =   -1940.13673646 Ry
     estimated scf accuracy    <       0.00005188 Ry

     total magnetization       =     1.00 Bohr mag/cell
     absolute magnetization    =     2.42 Bohr mag/cell

     iteration # 14     ecut=    40.00 Ry     beta= 0.70
     CG style diagonalization
     ethr =  1.33E-08,  avg # of iterations =  3.5

     negative rho (up, down):  4.854E-01 1.286E-02

     total cpu time spent up to now is      483.5 secs

     total energy              =   -1940.13673935 Ry
     Harris-Foulkes estimate   =   -1940.13674419 Ry
     estimated scf accuracy    <       0.00001689 Ry

     total magnetization       =     1.00 Bohr mag/cell
     absolute magnetization    =     2.42 Bohr mag/cell

     iteration # 15     ecut=    40.00 Ry     beta= 0.70
     CG style diagonalization
     ethr =  4.32E-09,  avg # of iterations =  3.6

     negative rho (up, down):  4.856E-01 1.288E-02

     total cpu time spent up to now is      513.5 secs

     total energy              =   -1940.13674347 Ry
     Harris-Foulkes estimate   =   -1940.13674746 Ry
     estimated scf accuracy    <       0.00001819 Ry

     total magnetization       =     1.00 Bohr mag/cell
     absolute magnetization    =     2.42 Bohr mag/cell

     iteration # 16     ecut=    40.00 Ry     beta= 0.70
     CG style diagonalization
     ethr =  4.32E-09,  avg # of iterations =  3.4

     negative rho (up, down):  4.852E-01 1.292E-02

     total cpu time spent up to now is      541.7 secs

     total energy              =   -1940.13674720 Ry
     Harris-Foulkes estimate   =   -1940.13674822 Ry
     estimated scf accuracy    <       0.00000236 Ry

     total magnetization       =     1.00 Bohr mag/cell
     absolute magnetization    =     2.43 Bohr mag/cell

     iteration # 17     ecut=    40.00 Ry     beta= 0.70
     CG style diagonalization
     ethr =  6.04E-10,  avg # of iterations =  3.5

     negative rho (up, down):  4.851E-01 1.295E-02
 
     Magnetic moment per site:
     atom:    1    charge:    0.8803    magn:    0.0002    constr:    0.0000
     atom:    2    charge:    0.8816    magn:    0.0012    constr:    0.0000
     atom:    3    charge:    0.8806    magn:    0.0022    constr:    0.0000
     atom:    4    charge:    0.8797    magn:   -0.0004    constr:    0.0000
     atom:    5    charge:    0.8805    magn:    0.0008    constr:    0.0000
     atom:    6    charge:    0.8812    magn:   -0.0001    constr:    0.0000
     atom:    7    charge:    0.8804    magn:    0.0004    constr:    0.0000
     atom:    8    charge:    0.8823    magn:    0.0010    constr:    0.0000
     atom:    9    charge:    0.8827    magn:    0.0009    constr:    0.0000
     atom:   10    charge:    0.8836    magn:    0.0100    constr:    0.0000
     atom:   11    charge:    0.8820    magn:    0.0014    constr:    0.0000
     atom:   12    charge:    0.8816    magn:    0.0017    constr:    0.0000
     atom:   13    charge:    0.8819    magn:   -0.0005    constr:    0.0000
     atom:   14    charge:    0.8812    magn:   -0.0001    constr:    0.0000
     atom:   15    charge:    0.8825    magn:    0.0000    constr:    0.0000
     atom:   16    charge:    0.8844    magn:    0.0049    constr:    0.0000
     atom:   17    charge:    0.9198    magn:    0.0195    constr:    0.0000
     atom:   18    charge:    0.9194    magn:    0.0266    constr:    0.0000
     atom:   19    charge:    0.8883    magn:    0.0084    constr:    0.0000
     atom:   20    charge:    0.8816    magn:    0.0017    constr:    0.0000
     atom:   21    charge:    0.8805    magn:    0.0008    constr:    0.0000
     atom:   22    charge:    0.8804    magn:   -0.0001    constr:    0.0000
     atom:   23    charge:    0.8818    magn:    0.0013    constr:    0.0000
     atom:   24    charge:    0.8843    magn:    0.0086    constr:    0.0000
     atom:   25    charge:    1.7275    magn:    0.1681    constr:    0.0000
     atom:   26    charge:    0.9194    magn:    0.0267    constr:    0.0000
     atom:   27    charge:    0.8820    magn:    0.0015    constr:    0.0000
     atom:   28    charge:    0.8797    magn:   -0.0004    constr:    0.0000
     atom:   29    charge:    0.8807    magn:    0.0008    constr:    0.0000
     atom:   30    charge:    0.8816    magn:    0.0000    constr:    0.0000
     atom:   31    charge:    0.8823    magn:    0.0011    constr:    0.0000
     atom:   32    charge:    0.8843    magn:    0.0086    constr:    0.0000
     atom:   33    charge:    0.9198    magn:    0.0196    constr:    0.0000
     atom:   34    charge:    0.8836    magn:    0.0101    constr:    0.0000
     atom:   35    charge:    0.8806    magn:    0.0022    constr:    0.0000
     atom:   36    charge:    0.8823    magn:    0.0004    constr:    0.0000
     atom:   37    charge:    0.8818    magn:   -0.0003    constr:    0.0000
     atom:   38    charge:    0.8816    magn:    0.0000    constr:    0.0000
     atom:   39    charge:    0.8818    magn:    0.0013    constr:    0.0000
     atom:   40    charge:    0.8844    magn:    0.0049    constr:    0.0000
     atom:   41    charge:    0.8827    magn:    0.0009    constr:    0.0000
     atom:   42    charge:    0.8816    magn:    0.0012    constr:    0.0000
     atom:   43    charge:    0.8823    magn:    0.0008    constr:    0.0000
     atom:   44    charge:    0.8823    magn:    0.0004    constr:    0.0000
     atom:   45    charge:    0.8807    magn:    0.0008    constr:    0.0000
     atom:   46    charge:    0.8804    magn:   -0.0001    constr:    0.0000
     atom:   47    charge:    0.8825    magn:    0.0000    constr:    0.0000
     atom:   48    charge:    0.8823    magn:    0.0010    constr:    0.0000
     atom:   49    charge:    0.8803    magn:    0.0002    constr:    0.0000
     atom:   50    charge:    2.8681    magn:   -0.0013    constr:    0.0000
     atom:   51    charge:    2.8714    magn:   -0.0011    constr:    0.0000
     atom:   52    charge:    2.8716    magn:   -0.0048    constr:    0.0000
     atom:   53    charge:    2.8677    magn:   -0.0082    constr:    0.0000
     atom:   54    charge:    2.8684    magn:    0.0000    constr:    0.0000
     atom:   55    charge:    2.8731    magn:    0.0003    constr:    0.0000
     atom:   56    charge:    2.8715    magn:   -0.0001    constr:    0.0000
     atom:   57    charge:    2.8694    magn:    0.0023    constr:    0.0000
     atom:   58    charge:    2.8681    magn:   -0.0011    constr:    0.0000
     atom:   59    charge:    2.8666    magn:   -0.0333    constr:    0.0000
     atom:   60    charge:    2.8673    magn:    0.0115    constr:    0.0000
     atom:   61    charge:    2.8680    magn:   -0.0096    constr:    0.0000
     atom:   62    charge:    2.8710    magn:   -0.0057    constr:    0.0000
     atom:   63    charge:    2.8731    magn:    0.0002    constr:    0.0000
     atom:   64    charge:    2.8674    magn:   -0.0006    constr:    0.0000
     atom:   65    charge:    2.8692    magn:   -0.0068    constr:    0.0000
     atom:   66    charge:    2.8643    magn:    0.0226    constr:    0.0000
     atom:   67    charge:    1.8055    magn:    0.0805    constr:    0.0000
     atom:   68    charge:    2.8586    magn:   -0.0877    constr:    0.0000
     atom:   69    charge:    2.8679    magn:   -0.0096    constr:    0.0000
     atom:   70    charge:    2.8684    magn:    0.0000    constr:    0.0000
     atom:   71    charge:    2.8684    magn:   -0.0005    constr:    0.0000
     atom:   72    charge:    2.8694    magn:    0.0001    constr:    0.0000
     atom:   73    charge:    2.8671    magn:   -0.0123    constr:    0.0000
     atom:   74    charge:    2.8250    magn:   -0.1064    constr:    0.0000
     atom:   75    charge:    1.8054    magn:    0.0804    constr:    0.0000
     atom:   76    charge:    2.8675    magn:    0.0113    constr:    0.0000
     atom:   77    charge:    2.8677    magn:   -0.0083    constr:    0.0000
     atom:   78    charge:    2.8674    magn:   -0.0001    constr:    0.0000
     atom:   79    charge:    2.8694    magn:   -0.0002    constr:    0.0000
     atom:   80    charge:    2.8743    magn:   -0.0076    constr:    0.0000
     atom:   81    charge:    2.8671    magn:   -0.0122    constr:    0.0000
     atom:   82    charge:    2.8642    magn:    0.0226    constr:    0.0000
     atom:   83    charge:    2.8667    magn:   -0.0336    constr:    0.0000
     atom:   84    charge:    2.8716    magn:   -0.0049    constr:    0.0000
     atom:   85    charge:    2.8688    magn:   -0.0015    constr:    0.0000
     atom:   86    charge:    2.8701    magn:   -0.0004    constr:    0.0000
     atom:   87    charge:    2.8694    magn:   -0.0002    constr:    0.0000
     atom:   88    charge:    2.8694    magn:    0.0001    constr:    0.0000
     atom:   89    charge:    2.8692    magn:   -0.0068    constr:    0.0000
     atom:   90    charge:    2.8681    magn:   -0.0012    constr:    0.0000
     atom:   91    charge:    2.8714    magn:   -0.0012    constr:    0.0000
     atom:   92    charge:    2.8682    magn:   -0.0014    constr:    0.0000
     atom:   93    charge:    2.8688    magn:   -0.0015    constr:    0.0000
     atom:   94    charge:    2.8674    magn:   -0.0001    constr:    0.0000
     atom:   95    charge:    2.8684    magn:   -0.0004    constr:    0.0000
     atom:   96    charge:    2.8674    magn:   -0.0006    constr:    0.0000
     atom:   97    charge:    2.8693    magn:    0.0022    constr:    0.0000
     atom:   98    charge:    2.8681    magn:   -0.0013    constr:    0.0000

     total cpu time spent up to now is      571.4 secs

     End of self-consistent calculation

 ------ SPIN UP ------------


          k = 0.0000 0.0000 0.0000 ( 77079 PWs)   bands (ev):

   -21.7628 -21.4966 -21.3927 -21.3926 -21.3745 -21.3069 -21.2325 -20.7907
   -20.6505 -20.6402 -20.6225 -20.5533 -20.5346 -20.3937 -20.3009 -20.2873
   -20.2681 -20.1164 -20.0981 -19.5324 -19.4111 -19.4042 -19.3875 -19.3795
   -19.3766 -19.3673 -19.3402 -19.3118 -19.3054 -19.1753 -19.1702 -19.0269
   -18.9780 -18.9752 -18.9377 -18.7733 -18.7545 -18.5435 -18.5272 -18.5118
   -18.5110 -18.4516 -18.4055 -18.3962 -18.3648 -18.3338 -18.3264 -16.7601
   -15.0228 -13.1300 -12.7736 -12.7663 -12.7517 -12.7197 -12.7187 -12.6442
   -12.5660 -12.5451 -12.5222 -12.4850 -12.4150 -12.1444 -12.0778 -12.0587
   -12.0358 -11.9840 -11.9576 -11.5366 -11.4026 -11.3856 -11.3832 -11.3747
   -11.3713 -11.3604 -11.3419 -11.3098 -11.2959 -11.0941 -11.0562 -10.8341
   -10.7211 -10.7094 -10.6778 -10.6559 -10.5417 -10.0393 -10.0006  -9.9950
    -9.9270  -9.8764  -9.8218  -9.3793  -9.3246  -9.2929  -9.2899  -9.2785
    -9.2731  -9.2051  -8.9965  -8.8987  -8.8892  -8.8827  -8.8698  -8.8696
    -8.8613  -8.8587  -8.8536  -8.8486  -8.8333  -8.8273  -8.8248  -8.8236
    -8.8072  -8.7956  -8.7852  -8.7568  -8.7423  -8.6863  -8.6762  -8.6509
    -8.5252  -8.5252  -8.1953  -8.1639  -8.1597  -8.0850  -8.0444  -7.8703
    -7.8611  -7.8185  -7.8072  -7.7988  -7.7344  -7.7305  -7.5296  -7.4978
    -7.4793  -7.4691  -7.4573  -7.4479  -7.3946  -7.3945  -7.3824  -7.3427
    -7.3343  -7.3304  -7.3085  -7.2383  -7.2323  -7.2209  -7.2058  -7.0517
    -7.0070  -6.9758  -6.8826  -6.8160  -6.6832  -6.6094  -6.1813  -6.1748
    -6.1539  -6.1505  -6.0705  -6.0663  -6.0521  -6.0442  -6.0433  -6.0318
    -6.0307  -6.0160  -5.9873  -5.9794  -5.8996  -5.8285  -5.8089  -5.7526
    -5.4934  -5.4516  -5.4474  -5.4203  -5.3182  -5.2693  -5.1098  -5.0996
    -4.7709  -4.7683  -4.7430  -4.7385  -4.6618  -4.6542  -4.5466  -4.5151
    -4.5009  -4.4906  -4.2604  -3.5625  -0.0701   0.1821   0.7060   0.7095
     0.7126   0.7321   0.7454   0.7481   0.7933   0.7963   0.8060   0.8114
     0.8169   0.8362   0.8591   0.8682   0.8767   0.9069   0.9258   0.9310
     0.9688   1.1489   1.2295   1.2362   1.2386   1.2953   1.3202   1.3255
     1.3301   1.3355   1.3452   1.3634   1.3993   1.4358   1.4383   1.4410
     1.4502   1.4589   1.4857   1.8844   2.0991   2.1059   2.1061   2.1189
     2.1253   2.1378   2.1522   2.2105   2.3136

 ------ SPIN DOWN ----------


          k = 0.0000 0.0000 0.0000 ( 77079 PWs)   bands (ev):

   -21.7693 -21.5202 -21.3939 -21.3934 -21.3794 -21.3085 -21.2446 -20.8156
   -20.6573 -20.6518 -20.6176 -20.5544 -20.5386 -20.4051 -20.3066 -20.2860
   -20.2845 -20.1098 -20.1082 -19.5557 -19.4177 -19.4101 -19.3914 -19.3825
   -19.3795 -19.3675 -19.3516 -19.3377 -19.2909 -19.1812 -19.1788 -19.0330
   -18.9816 -18.9782 -18.9492 -18.7676 -18.7594 -18.5504 -18.5307 -18.5229
   -18.5192 -18.4559 -18.4141 -18.4028 -18.3642 -18.3422 -18.3379 -16.5675
   -14.7688 -13.0281 -12.7719 -12.7627 -12.7489 -12.7161 -12.7159 -12.6330
   -12.5643 -12.5398 -12.5195 -12.4690 -12.4034 -12.1346 -12.0762 -12.0573
   -12.0308 -11.9756 -11.9486 -11.5103 -11.4019 -11.3827 -11.3819 -11.3727
   -11.3706 -11.3548 -11.3411 -11.3002 -11.2902 -11.0716 -11.0326 -10.8205
   -10.7199 -10.7066 -10.6755 -10.6370 -10.5192 -10.0346  -9.9960  -9.9943
    -9.9179  -9.8675  -9.8090  -9.3758  -9.3186  -9.2923  -9.2894  -9.2773
    -9.2639  -9.2010  -8.9917  -8.9057  -8.8913  -8.8812  -8.8789  -8.8725
    -8.8610  -8.8587  -8.8532  -8.8437  -8.8335  -8.8267  -8.8236  -8.8202
    -8.8114  -8.8011  -8.7809  -8.7429  -8.7349  -8.6600  -8.6304  -8.6283
    -8.5107  -8.5055  -8.1966  -8.1646  -8.1594  -8.0606  -8.0397  -7.8916
    -7.8470  -7.8274  -7.8214  -7.7810  -7.7169  -7.6906  -7.5253  -7.5027
    -7.4773  -7.4674  -7.4565  -7.4467  -7.4202  -7.3945  -7.3848  -7.3515
    -7.3334  -7.3218  -7.3210  -7.2331  -7.1997  -7.1667  -7.1629  -7.0453
    -7.0069  -6.9764  -6.8427  -6.7917  -6.6669  -6.5814  -6.1888  -6.1846
    -6.1721  -6.1533  -6.0792  -6.0756  -6.0579  -6.0473  -6.0453  -6.0305
    -6.0269  -6.0202  -6.0075  -5.9478  -5.8280  -5.7997  -5.7953  -5.7288
    -5.5041  -5.4550  -5.4469  -5.4252  -5.2395  -5.2243  -5.0682  -5.0399
    -4.7853  -4.7735  -4.7591  -4.7529  -4.6563  -4.6388  -4.5543  -4.5110
    -4.5095  -4.5006  -4.1760  -3.0198   0.1857   0.5285   0.7083   0.7219
     0.7314   0.7539   0.7700   0.7741   0.7900   0.8051   0.8108   0.8171
     0.8346   0.8379   0.8656   0.8888   0.8895   0.9223   0.9519   0.9573
     1.0906   1.1935   1.2430   1.2490   1.2832   1.3184   1.3234   1.3283
     1.3439   1.3577   1.3795   1.4143   1.4249   1.4328   1.4352   1.4378
     1.4469   1.4563   1.4891   1.8847   2.1057   2.1090   2.1210   2.1289
     2.1506   2.1617   2.1870   2.2139   2.3144

     highest occupied, lowest unoccupied level (ev):    -4.1760   -4.2604

!    total energy              =   -1940.13674771 Ry
     Harris-Foulkes estimate   =   -1940.13674800 Ry
     estimated scf accuracy    <       0.00000092 Ry

     total all-electron energy =     -7769.961224 Ry

     The total energy is the sum of the following terms:

     one-electron contribution =  -10680.38837324 Ry
     hartree contribution      =    5426.09764031 Ry
     xc contribution           =    -431.00999507 Ry
     ewald contribution        =    4388.62168141 Ry
     DFT-D3 Dispersion         =      -0.27079554 Ry
     one-center paw contrib.   =    -643.18690559 Ry

     total magnetization       =     1.00 Bohr mag/cell
     absolute magnetization    =     2.42 Bohr mag/cell

     convergence has been achieved in  17 iterations

     negative rho (up, down):  4.851E-01 1.295E-02

     Forces acting on atoms (cartesian axes, Ry/au):

     atom    1 type  1   force =    -0.00028750   -0.00172571    0.00000000
     atom    2 type  1   force =     0.00129356   -0.00216812    0.00000000
     atom    3 type  1   force =    -0.00112668    0.00071868    0.00000000
     atom    4 type  1   force =    -0.00325122    0.00005872    0.00000000
     atom    5 type  1   force =     0.00180822   -0.00251174    0.00000000
     atom    6 type  1   force =    -0.00004921    0.00144345    0.00000000
     atom    7 type  1   force =    -0.00193753    0.00111535    0.00000000
     atom    8 type  1   force =    -0.00410272   -0.00175307    0.00000000
     atom    9 type  1   force =    -0.00456310   -0.00136239    0.00000000
     atom   10 type  1   force =    -0.00111778    0.00506239    0.00000000
     atom   11 type  1   force =     0.00174117   -0.00891346    0.00000000
     atom   12 type  1   force =    -0.00247215   -0.00335763    0.00000000
     atom   13 type  1   force =    -0.00247730    0.00142972    0.00000000
     atom   14 type  1   force =    -0.00127528   -0.00067678    0.00000000
     atom   15 type  1   force =     0.00185405   -0.00312666    0.00000000
     atom   16 type  1   force =     0.00262899    0.01265414    0.00000000
     atom   17 type  1   force =    -0.00081747   -0.06786279    0.00000000
     atom   18 type  1   force =    -0.05808039    0.02460573    0.00000000
     atom   19 type  1   force =     0.00281582   -0.00162594    0.00000000
     atom   20 type  1   force =     0.00166659    0.00383417    0.00000000
     atom   21 type  1   force =     0.00308943   -0.00031040    0.00000000
     atom   22 type  1   force =     0.00254354   -0.00367712    0.00000000
     atom   23 type  1   force =     0.00026969   -0.00331247    0.00000000
     atom   24 type  1   force =    -0.01092265   -0.01503215    0.00000000
     atom   25 type  4   force =     0.02990066   -0.01720345    0.00000000
     atom   26 type  1   force =    -0.05033093    0.03802199    0.00000000
     atom   27 type  1   force =     0.00861329    0.00294779    0.00000000
     atom   28 type  1   force =    -0.00168705    0.00278667    0.00000000
     atom   29 type  1   force =    -0.00205458   -0.00312001    0.00000000
     atom   30 type  1   force =     0.00083656   -0.00496689    0.00000000
     atom   31 type  1   force =     0.00562051   -0.00323295    0.00000000
     atom   32 type  1   force =     0.00755571    0.01698104    0.00000000
     atom   33 type  1   force =     0.05833348    0.03464041    0.00000000
     atom   34 type  1   force =    -0.00495665   -0.00158025    0.00000000
     atom   35 type  1   force =    -0.00117640    0.00061405    0.00000000
     atom   36 type  1   force =    -0.00131665   -0.00196248    0.00000000
     atom   37 type  1   force =    -0.00118378    0.00068152    0.00000000
     atom   38 type  1   force =     0.00471530    0.00176078    0.00000000
     atom   39 type  1   force =     0.00298921    0.00141807    0.00000000
     atom   40 type  1   force =    -0.00962897   -0.00859596    0.00000000
     atom   41 type  1   force =    -0.00110108    0.00463374    0.00000000
     atom   42 type  1   force =     0.00251995   -0.00003711    0.00000000
     atom   43 type  1   force =     0.00408042   -0.00235920    0.00000000
     atom   44 type  1   force =     0.00103687    0.00211589    0.00000000
     atom   45 type  1   force =     0.00166908    0.00334161    0.00000000
     atom   46 type  1   force =     0.00445344   -0.00036507    0.00000000
     atom   47 type  1   force =     0.00363329   -0.00003822    0.00000000
     atom   48 type  1   force =    -0.00053714    0.00443133    0.00000000
     atom   49 type  1   force =     0.00135170    0.00110658    0.00000000
     atom   50 type  2   force =     0.00022206    0.00030077    0.00000000
     atom   51 type  2   force =    -0.00012356   -0.00214654    0.00000000
     atom   52 type  2   force =    -0.00105740    0.00023980    0.00000000
     atom   53 type  2   force =    -0.00056731    0.00127509    0.00000000
     atom   54 type  2   force =    -0.00067514   -0.00028181    0.00000000
     atom   55 type  2   force =     0.00068526    0.00054786    0.00000000
     atom   56 type  2   force =     0.00002921   -0.00001830    0.00000000
     atom   57 type  2   force =     0.00036933   -0.00105881    0.00000000
     atom   58 type  2   force =    -0.00241611   -0.00314547    0.00000000
     atom   59 type  2   force =    -0.00482223   -0.01758787    0.00000000
     atom   60 type  2   force =    -0.01755558    0.00389471    0.00000000
     atom   61 type  2   force =    -0.00546041    0.00323633    0.00000000
     atom   62 type  2   force =     0.00078891   -0.00046255    0.00000000
     atom   63 type  2   force =    -0.00013521   -0.00087169    0.00000000
     atom   64 type  2   force =     0.00038776    0.00051322    0.00000000
     atom   65 type  2   force =     0.00335499   -0.00172718    0.00000000
     atom   66 type  2   force =     0.01406202   -0.02764630    0.00000000
     atom   67 type  3   force =     0.09832803    0.03580651    0.00000000
     atom   68 type  2   force =    -0.05078437    0.02931569    0.00000000
     atom   69 type  2   force =    -0.00552277    0.00309639    0.00000000
     atom   70 type  2   force =    -0.00009539    0.00072597    0.00000000
     atom   71 type  2   force =    -0.00023026   -0.00015265    0.00000000
     atom   72 type  2   force =    -0.00017381    0.00219151    0.00000000
     atom   73 type  2   force =    -0.00196293    0.00850676    0.00000000
     atom   74 type  2   force =    -0.05265423    0.03040630    0.00000000
     atom   75 type  5   force =     0.01817320   -0.10307954    0.00000000
     atom   76 type  2   force =    -0.01212995    0.01325175    0.00000000
     atom   77 type  2   force =    -0.00137035   -0.00015820    0.00000000
     atom   78 type  2   force =    -0.00110534    0.00040048    0.00000000
     atom   79 type  2   force =    -0.00122395    0.00077058    0.00000000
     atom   80 type  2   force =    -0.00465459    0.00268916    0.00000000
     atom   81 type  2   force =    -0.00834269   -0.00255226    0.00000000
     atom   82 type  2   force =     0.03096610    0.00163296    0.00000000
     atom   83 type  2   force =     0.01280655    0.01295293    0.00000000
     atom   84 type  2   force =    -0.00074430    0.00079763    0.00000000
     atom   85 type  2   force =    -0.00016784   -0.00069568    0.00000000
     atom   86 type  2   force =    -0.00031479    0.00018710    0.00000000
     atom   87 type  2   force =    -0.00127416    0.00067677    0.00000000
     atom   88 type  2   force =    -0.00198030   -0.00094268    0.00000000
     atom   89 type  2   force =     0.00316023   -0.00203646    0.00000000
     atom   90 type  2   force =     0.00150605    0.00365162    0.00000000
     atom   91 type  2   force =     0.00179470    0.00116995    0.00000000
     atom   92 type  2   force =     0.00000169    0.00000213    0.00000000
     atom   93 type  2   force =     0.00051968    0.00049834    0.00000000
     atom   94 type  2   force =    -0.00089638    0.00075668    0.00000000
     atom   95 type  2   force =     0.00001589    0.00027666    0.00000000
     atom   96 type  2   force =    -0.00024770   -0.00059385    0.00000000
     atom   97 type  2   force =     0.00109986    0.00020384    0.00000000
     atom   98 type  2   force =    -0.00014884   -0.00034344    0.00000000

     Total force =     0.229549     Total SCF correction =     0.001907


     Computing stress (Cartesian axis) and pressure


     negative rho (up, down):  4.851E-01 1.295E-02
          total   stress  (Ry/bohr**3)                   (kbar)     P=    1.95
   0.00002136   0.00000036   0.00000000          3.14      0.05      0.00
   0.00000036   0.00002177   0.00000000          0.05      3.20      0.00
   0.00000000   0.00000000  -0.00000331          0.00      0.00     -0.49


     BFGS Geometry Optimization

     number of scf cycles    =   1
     number of bfgs steps    =   0

     enthalpy new            =   -1940.1367477135 Ry

     new trust radius        =       0.1046692779 bohr
     new conv_thr            =       0.0000010000 Ry

     new unit-cell volume =  36143.52611 a.u.^3 (  5355.91792 Ang^3 )
     density =      0.36398 g/cm^3

CELL_PARAMETERS (alat= 33.23461096)
   0.999868077   0.000008910   0.000000000
  -0.499926323   0.865915577   0.000000000
   0.000000000   0.000000000   1.137203616

ATOMIC_POSITIONS (crystal)
B        0.047584568   0.095186448   0.500000000
B        0.047620133   0.238023165   0.500000000
B        0.047599545   0.380970608   0.500000000
B        0.047527375   0.523814665   0.500000000
B        0.047631756   0.666588028   0.500000000
B        0.047642486   0.809570516   0.500000000
B        0.047584274   0.952415554   0.500000000
B        0.190332770   0.095182439   0.500000000
B        0.190318595   0.238051178   0.500000000
B        0.190530154   0.381127618   0.500000000
B        0.190381986   0.523503106   0.500000000
B        0.190351706   0.666555773   0.500000000
B        0.190426071   0.809573900   0.500000000
B        0.190429507   0.952357595   0.500000000
B        0.333332957   0.095132988   0.500000000
B        0.333630616   0.238529739   0.500000000
B        0.332120338   0.378586233   0.500000000
B        0.332006475   0.524668470   0.500000000
B        0.333389518   0.666610471   0.500000000
B        0.333444323   0.809648795   0.500000000
B        0.333412270   0.952368233   0.500000000
B        0.476200194   0.095117431   0.500000000
B        0.476137732   0.237978432   0.500000000
B        0.475597347   0.380419633   0.500000000
C2       0.476788603   0.523214511   0.500000000
B        0.475332534   0.667994421   0.500000000
B        0.476497581   0.809617978   0.500000000
B        0.476185022   0.952472638   0.500000000
B        0.618941645   0.095136801   0.500000000
B        0.618989456   0.237927536   0.500000000
B        0.619163639   0.380836990   0.500000000
B        0.619580429   0.524402850   0.500000000
B        0.621412922   0.667879699   0.500000000
B        0.618871675   0.809469252   0.500000000
B        0.619029632   0.952400374   0.500000000
B        0.761836450   0.095173463   0.500000000
B        0.761882608   0.238117292   0.500000000
B        0.762072362   0.381010607   0.500000000
B        0.762021057   0.523862108   0.500000000
B        0.761470860   0.666369658   0.500000000
B        0.761948854   0.809681432   0.500000000
B        0.761976685   0.952379835   0.500000000
B        0.904838459   0.095161365   0.500000000
B        0.904826308   0.238163355   0.500000000
B        0.904863070   0.381058435   0.500000000
B        0.904882469   0.523799776   0.500000000
B        0.904867038   0.666667185   0.500000000
B        0.904817471   0.809667290   0.500000000
B        0.904813489   0.952415250   0.500000000
N        0.095255763   0.047632381   0.500000000
N        0.095200657   0.190408755   0.500000000
N        0.095212679   0.333340324   0.500000000
N        0.095247995   0.476232817   0.500000000
N        0.095217684   0.619044628   0.500000000
N        0.095270504   0.761927408   0.500000000
N        0.095242253   0.904757672   0.500000000
N        0.238090485   0.047582469   0.500000000
N        0.237970345   0.190369131   0.500000000
N        0.237640706   0.332720509   0.500000000
N        0.237633352   0.476323871   0.500000000
N        0.237990531   0.619162358   0.500000000
N        0.238109945   0.761889687   0.500000000
N        0.238072415   0.904729346   0.500000000
N        0.380968416   0.047638435   0.500000000
N        0.381022746   0.190415828   0.500000000
N        0.380890624   0.332366047   0.500000000
C1       0.384528591   0.477433373   0.500000000
N        0.379930696   0.620069060   0.500000000
N        0.380837700   0.762008971   0.500000000
N        0.380955322   0.904782329   0.500000000
N        0.523802187   0.047617242   0.500000000
N        0.523844666   0.190557926   0.500000000
N        0.523900578   0.333624824   0.500000000
N        0.522754968   0.477245364   0.500000000
C3       0.522566808   0.615470654   0.500000000
N        0.523676677   0.762366492   0.500000000
N        0.523767504   0.904751589   0.500000000
N        0.666646454   0.047634516   0.500000000
N        0.666647474   0.190508525   0.500000000
N        0.666573601   0.333426494   0.500000000
N        0.666375372   0.476099462   0.500000000
N        0.667633523   0.619108954   0.500000000
N        0.667278775   0.762358696   0.500000000
N        0.666659468   0.904787383   0.500000000
N        0.809504363   0.047595094   0.500000000
N        0.809517897   0.190482382   0.500000000
N        0.809491667   0.333352598   0.500000000
N        0.809442254   0.476155423   0.500000000
N        0.809583874   0.618977443   0.500000000
N        0.809630334   0.762029185   0.500000000
N        0.809590991   0.904798984   0.500000000
N        0.952378164   0.047621998   0.500000000
N        0.952405029   0.190495816   0.500000000
N        0.952365572   0.333353535   0.500000000
N        0.952382739   0.476197845   0.500000000
N        0.952361627   0.619031535   0.500000000
N        0.952417378   0.761909316   0.500000000
N        0.952367624   0.904744211   0.500000000



     Writing output data file C2Cn.save/
     NEW-OLD atomic charge density approx. for the potential
     NEW k-points:
   0.0000000   0.0000000   0.0000000   1.0000000
   0.0000000   0.0000000   0.0000000   1.0000000

     Check: negative core charge=   -0.000006

     negative rho (up, down):  4.848E-01 5.070E-03
     extrapolated charge  391.42120, renormalised to  391.00000

     total cpu time spent up to now is      590.9 secs

     Self-consistent Calculation

     iteration #  1     ecut=    40.00 Ry     beta= 0.70
     CG style diagonalization
     c_bands:  3 eigenvalues not converged
     ethr =  1.00E-06,  avg # of iterations = 20.7

     negative rho (up, down):  2.773E-01 2.193E-01

     total cpu time spent up to now is      806.1 secs

     total energy              =   -1940.03228394 Ry
     Harris-Foulkes estimate   =   -1929.03311831 Ry
     estimated scf accuracy    <       0.16220890 Ry

     total magnetization       =     1.00 Bohr mag/cell
     absolute magnetization    =     2.64 Bohr mag/cell

     iteration #  2     ecut=    40.00 Ry     beta= 0.70
     CG style diagonalization
     c_bands:  1 eigenvalues not converged
     c_bands:  2 eigenvalues not converged
     ethr =  4.15E-05,  avg # of iterations =  4.8

     negative rho (up, down):  3.017E-01 1.952E-01

     total cpu time spent up to now is      850.4 secs

     total energy              =   -1939.93976472 Ry
     Harris-Foulkes estimate   =   -1940.46476656 Ry
     estimated scf accuracy    <       2.16332942 Ry

     total magnetization       =     1.00 Bohr mag/cell
     absolute magnetization    =     2.27 Bohr mag/cell

     iteration #  3     ecut=    40.00 Ry     beta= 0.70
     CG style diagonalization
     c_bands:  1 eigenvalues not converged
     ethr =  4.15E-05,  avg # of iterations =  4.2

     negative rho (up, down):  3.423E-01 1.539E-01

     total cpu time spent up to now is      888.4 secs

     total energy              =   -1940.14799140 Ry
     Harris-Foulkes estimate   =   -1940.17892220 Ry
     estimated scf accuracy    <       0.09250650 Ry

     total magnetization       =     1.00 Bohr mag/cell
     absolute magnetization    =     2.42 Bohr mag/cell

     iteration #  4     ecut=    40.00 Ry     beta= 0.70
     CG style diagonalization
     ethr =  2.37E-05,  avg # of iterations =  3.4

     negative rho (up, down):  3.700E-01 1.246E-01

     total cpu time spent up to now is      917.3 secs

     total energy              =   -1940.15450081 Ry
     Harris-Foulkes estimate   =   -1940.16022292 Ry
     estimated scf accuracy    <       0.02187188 Ry

     total magnetization       =     1.00 Bohr mag/cell
     absolute magnetization    =     2.38 Bohr mag/cell

     iteration #  5     ecut=    40.00 Ry     beta= 0.70
     CG style diagonalization
     c_bands:  1 eigenvalues not converged
     ethr =  5.59E-06,  avg # of iterations =  3.7

     negative rho (up, down):  3.965E-01 9.546E-02

     total cpu time spent up to now is      948.7 secs

     total energy              =   -1940.15527320 Ry
     Harris-Foulkes estimate   =   -1940.15882744 Ry
     estimated scf accuracy    <       0.02244542 Ry

     total magnetization       =     1.00 Bohr mag/cell
     absolute magnetization    =     2.43 Bohr mag/cell

     iteration #  6     ecut=    40.00 Ry     beta= 0.70
     CG style diagonalization
     c_bands:  1 eigenvalues not converged
     ethr =  5.59E-06,  avg # of iterations =  3.2

     negative rho (up, down):  4.180E-01 7.187E-02

     total cpu time spent up to now is      974.5 secs

     total energy              =   -1940.15572011 Ry
     Harris-Foulkes estimate   =   -1940.15722636 Ry
     estimated scf accuracy    <       0.01005118 Ry

     total magnetization       =     1.00 Bohr mag/cell
     absolute magnetization    =     2.42 Bohr mag/cell

     iteration #  7     ecut=    40.00 Ry     beta= 0.70
     CG style diagonalization
     ethr =  2.57E-06,  avg # of iterations =  3.3

     negative rho (up, down):  4.464E-01 4.176E-02

     total cpu time spent up to now is     1001.4 secs

     total energy              =   -1940.15553438 Ry
     Harris-Foulkes estimate   =   -1940.15626964 Ry
     estimated scf accuracy    <       0.00378710 Ry

     total magnetization       =     1.00 Bohr mag/cell
     absolute magnetization    =     2.41 Bohr mag/cell

     iteration #  8     ecut=    40.00 Ry     beta= 0.70
     CG style diagonalization
     ethr =  9.69E-07,  avg # of iterations =  3.2

     negative rho (up, down):  4.766E-01 1.534E-02

     total cpu time spent up to now is     1027.9 secs

     total energy              =   -1940.15537879 Ry
     Harris-Foulkes estimate   =   -1940.15574452 Ry
     estimated scf accuracy    <       0.00135512 Ry

     total magnetization       =     1.00 Bohr mag/cell
     absolute magnetization    =     2.42 Bohr mag/cell

     iteration #  9     ecut=    40.00 Ry     beta= 0.70
     CG style diagonalization
     c_bands:  1 eigenvalues not converged
     ethr =  3.47E-07,  avg # of iterations =  3.5

     negative rho (up, down):  4.789E-01 1.455E-02

     total cpu time spent up to now is     1057.2 secs

     total energy              =   -1940.15551827 Ry
     Harris-Foulkes estimate   =   -1940.15554741 Ry
     estimated scf accuracy    <       0.00014502 Ry

     total magnetization       =     1.00 Bohr mag/cell
     absolute magnetization    =     2.43 Bohr mag/cell

     iteration # 10     ecut=    40.00 Ry     beta= 0.70
     CG style diagonalization
     ethr =  3.71E-08,  avg # of iterations =  3.4

     negative rho (up, down):  4.810E-01 1.421E-02

     total cpu time spent up to now is     1085.8 secs

     total energy              =   -1940.15553130 Ry
     Harris-Foulkes estimate   =   -1940.15554455 Ry
     estimated scf accuracy    <       0.00005658 Ry

     total magnetization       =     1.00 Bohr mag/cell
     absolute magnetization    =     2.44 Bohr mag/cell

     iteration # 11     ecut=    40.00 Ry     beta= 0.70
     CG style diagonalization
     ethr =  1.45E-08,  avg # of iterations =  3.3

     negative rho (up, down):  4.813E-01 1.421E-02

     total cpu time spent up to now is     1112.8 secs

     total energy              =   -1940.15553926 Ry
     Harris-Foulkes estimate   =   -1940.15554215 Ry
     estimated scf accuracy    <       0.00001500 Ry

     total magnetization       =     1.00 Bohr mag/cell
     absolute magnetization    =     2.44 Bohr mag/cell

     iteration # 12     ecut=    40.00 Ry     beta= 0.70
     CG style diagonalization
     ethr =  3.84E-09,  avg # of iterations =  3.4

     negative rho (up, down):  4.812E-01 1.424E-02

     total cpu time spent up to now is     1142.0 secs

     total energy              =   -1940.15554241 Ry
     Harris-Foulkes estimate   =   -1940.15554296 Ry
     estimated scf accuracy    <       0.00000312 Ry

     total magnetization       =     1.00 Bohr mag/cell
     absolute magnetization    =     2.44 Bohr mag/cell

     iteration # 13     ecut=    40.00 Ry     beta= 0.70
     CG style diagonalization
     ethr =  7.97E-10,  avg # of iterations =  3.5

     negative rho (up, down):  4.813E-01 1.423E-02
 
     Magnetic moment per site:
     atom:    1    charge:    0.8808    magn:    0.0002    constr:    0.0000
     atom:    2    charge:    0.8815    magn:    0.0014    constr:    0.0000
     atom:    3    charge:    0.8806    magn:    0.0023    constr:    0.0000
     atom:    4    charge:    0.8799    magn:   -0.0004    constr:    0.0000
     atom:    5    charge:    0.8804    magn:    0.0011    constr:    0.0000
     atom:    6    charge:    0.8814    magn:   -0.0001    constr:    0.0000
     atom:    7    charge:    0.8803    magn:    0.0007    constr:    0.0000
     atom:    8    charge:    0.8827    magn:    0.0010    constr:    0.0000
     atom:    9    charge:    0.8869    magn:    0.0007    constr:    0.0000
     atom:   10    charge:    0.8807    magn:    0.0110    constr:    0.0000
     atom:   11    charge:    0.8854    magn:    0.0015    constr:    0.0000
     atom:   12    charge:    0.8830    magn:    0.0020    constr:    0.0000
     atom:   13    charge:    0.8822    magn:   -0.0005    constr:    0.0000
     atom:   14    charge:    0.8814    magn:   -0.0001    constr:    0.0000
     atom:   15    charge:    0.8827    magn:    0.0002    constr:    0.0000
     atom:   16    charge:    0.8902    magn:    0.0068    constr:    0.0000
     atom:   17    charge:    0.9041    magn:    0.0201    constr:    0.0000
     atom:   18    charge:    0.8947    magn:    0.0270    constr:    0.0000
     atom:   19    charge:    0.9030    magn:    0.0104    constr:    0.0000
     atom:   20    charge:    0.8830    magn:    0.0020    constr:    0.0000
     atom:   21    charge:    0.8804    magn:    0.0011    constr:    0.0000
     atom:   22    charge:    0.8801    magn:   -0.0001    constr:    0.0000
     atom:   23    charge:    0.8807    magn:    0.0013    constr:    0.0000
     atom:   24    charge:    0.8782    magn:    0.0103    constr:    0.0000
     atom:   25    charge:    1.7950    magn:    0.1341    constr:    0.0000
     atom:   26    charge:    0.8947    magn:    0.0271    constr:    0.0000
     atom:   27    charge:    0.8854    magn:    0.0015    constr:    0.0000
     atom:   28    charge:    0.8799    magn:   -0.0004    constr:    0.0000
     atom:   29    charge:    0.8807    magn:    0.0011    constr:    0.0000
     atom:   30    charge:    0.8816    magn:    0.0002    constr:    0.0000
     atom:   31    charge:    0.8848    magn:    0.0026    constr:    0.0000
     atom:   32    charge:    0.8783    magn:    0.0103    constr:    0.0000
     atom:   33    charge:    0.9041    magn:    0.0201    constr:    0.0000
     atom:   34    charge:    0.8807    magn:    0.0110    constr:    0.0000
     atom:   35    charge:    0.8806    magn:    0.0023    constr:    0.0000
     atom:   36    charge:    0.8819    magn:    0.0003    constr:    0.0000
     atom:   37    charge:    0.8814    magn:   -0.0003    constr:    0.0000
     atom:   38    charge:    0.8816    magn:    0.0002    constr:    0.0000
     atom:   39    charge:    0.8807    magn:    0.0013    constr:    0.0000
     atom:   40    charge:    0.8902    magn:    0.0068    constr:    0.0000
     atom:   41    charge:    0.8869    magn:    0.0007    constr:    0.0000
     atom:   42    charge:    0.8815    magn:    0.0014    constr:    0.0000
     atom:   43    charge:    0.8821    magn:    0.0012    constr:    0.0000
     atom:   44    charge:    0.8819    magn:    0.0003    constr:    0.0000
     atom:   45    charge:    0.8807    magn:    0.0011    constr:    0.0000
     atom:   46    charge:    0.8801    magn:   -0.0001    constr:    0.0000
     atom:   47    charge:    0.8827    magn:    0.0002    constr:    0.0000
     atom:   48    charge:    0.8827    magn:    0.0010    constr:    0.0000
     atom:   49    charge:    0.8808    magn:    0.0002    constr:    0.0000
     atom:   50    charge:    2.8704    magn:   -0.0012    constr:    0.0000
     atom:   51    charge:    2.8736    magn:   -0.0007    constr:    0.0000
     atom:   52    charge:    2.8712    magn:   -0.0059    constr:    0.0000
     atom:   53    charge:    2.8689    magn:   -0.0075    constr:    0.0000
     atom:   54    charge:    2.8707    magn:   -0.0001    constr:    0.0000
     atom:   55    charge:    2.8735    magn:    0.0002    constr:    0.0000
     atom:   56    charge:    2.8725    magn:    0.0002    constr:    0.0000
     atom:   57    charge:    2.8695    magn:    0.0027    constr:    0.0000
     atom:   58    charge:    2.8664    magn:   -0.0010    constr:    0.0000
     atom:   59    charge:    2.8735    magn:   -0.0273    constr:    0.0000
     atom:   60    charge:    2.8784    magn:    0.0083    constr:    0.0000
     atom:   61    charge:    2.8667    magn:   -0.0115    constr:    0.0000
     atom:   62    charge:    2.8697    magn:   -0.0071    constr:    0.0000
     atom:   63    charge:    2.8736    magn:    0.0002    constr:    0.0000
     atom:   64    charge:    2.8688    magn:   -0.0006    constr:    0.0000
     atom:   65    charge:    2.8689    magn:   -0.0080    constr:    0.0000
     atom:   66    charge:    2.8781    magn:    0.0200    constr:    0.0000
     atom:   67    charge:    1.7684    magn:    0.0830    constr:    0.0000
     atom:   68    charge:    2.8677    magn:   -0.0733    constr:    0.0000
     atom:   69    charge:    2.8667    magn:   -0.0115    constr:    0.0000
     atom:   70    charge:    2.8707    magn:   -0.0001    constr:    0.0000
     atom:   71    charge:    2.8715    magn:   -0.0003    constr:    0.0000
     atom:   72    charge:    2.8703    magn:    0.0001    constr:    0.0000
     atom:   73    charge:    2.8655    magn:   -0.0149    constr:    0.0000
     atom:   74    charge:    2.8236    magn:   -0.1264    constr:    0.0000
     atom:   75    charge:    1.7684    magn:    0.0830    constr:    0.0000
     atom:   76    charge:    2.8784    magn:    0.0083    constr:    0.0000
     atom:   77    charge:    2.8690    magn:   -0.0075    constr:    0.0000
     atom:   78    charge:    2.8688    magn:   -0.0003    constr:    0.0000
     atom:   79    charge:    2.8704    magn:   -0.0004    constr:    0.0000
     atom:   80    charge:    2.8741    magn:   -0.0102    constr:    0.0000
     atom:   81    charge:    2.8655    magn:   -0.0149    constr:    0.0000
     atom:   82    charge:    2.8780    magn:    0.0200    constr:    0.0000
     atom:   83    charge:    2.8734    magn:   -0.0274    constr:    0.0000
     atom:   84    charge:    2.8712    magn:   -0.0059    constr:    0.0000
     atom:   85    charge:    2.8690    magn:   -0.0015    constr:    0.0000
     atom:   86    charge:    2.8698    magn:   -0.0003    constr:    0.0000
     atom:   87    charge:    2.8704    magn:   -0.0004    constr:    0.0000
     atom:   88    charge:    2.8703    magn:    0.0001    constr:    0.0000
     atom:   89    charge:    2.8689    magn:   -0.0080    constr:    0.0000
     atom:   90    charge:    2.8663    magn:   -0.0010    constr:    0.0000
     atom:   91    charge:    2.8736    magn:   -0.0007    constr:    0.0000
     atom:   92    charge:    2.8705    magn:   -0.0016    constr:    0.0000
     atom:   93    charge:    2.8690    magn:   -0.0015    constr:    0.0000
     atom:   94    charge:    2.8688    magn:   -0.0003    constr:    0.0000
     atom:   95    charge:    2.8715    magn:   -0.0003    constr:    0.0000
     atom:   96    charge:    2.8688    magn:   -0.0006    constr:    0.0000
     atom:   97    charge:    2.8696    magn:    0.0027    constr:    0.0000
     atom:   98    charge:    2.8703    magn:   -0.0012    constr:    0.0000

     total cpu time spent up to now is     1171.6 secs

     End of self-consistent calculation

 ------ SPIN UP ------------


          k = 0.0000 0.0000 0.0000 ( 77079 PWs)   bands (ev):

   -21.7994 -21.5856 -21.3893 -21.3851 -21.3624 -21.3264 -21.2830 -20.8711
   -20.6541 -20.6452 -20.6407 -20.5607 -20.5465 -20.4171 -20.3022 -20.2990
   -20.2846 -20.1547 -20.1355 -19.5937 -19.4120 -19.3995 -19.3943 -19.3867
   -19.3772 -19.3758 -19.3662 -19.3478 -19.3315 -19.1658 -19.1620 -19.0406
   -18.9838 -18.9807 -18.9560 -18.7849 -18.7697 -18.5453 -18.5440 -18.5318
   -18.5144 -18.4498 -18.4368 -18.3940 -18.3700 -18.3461 -18.3400 -16.8762
   -14.9432 -13.1506 -12.7798 -12.7757 -12.7565 -12.7203 -12.7133 -12.6498
   -12.5688 -12.5412 -12.5271 -12.4956 -12.4254 -12.1454 -12.0815 -12.0654
   -12.0401 -11.9885 -11.9582 -11.5589 -11.4171 -11.4126 -11.3943 -11.3931
   -11.3682 -11.3633 -11.3590 -11.3318 -11.3033 -11.1090 -11.0418 -10.8786
   -10.7173 -10.7106 -10.6831 -10.6767 -10.5220 -10.0773 -10.0449 -10.0044
    -9.9233  -9.8887  -9.8179  -9.4173  -9.3319  -9.3227  -9.3005  -9.2833
    -9.2794  -9.2099  -9.0510  -8.9213  -8.9207  -8.9001  -8.8958  -8.8873
    -8.8870  -8.8740  -8.8599  -8.8531  -8.8455  -8.8298  -8.8247  -8.8243
    -8.8230  -8.8185  -8.7974  -8.7754  -8.7605  -8.7203  -8.6720  -8.6532
    -8.4858  -8.4843  -8.1909  -8.1757  -8.1732  -8.1270  -8.0916  -7.9195
    -7.8826  -7.8255  -7.8154  -7.8147  -7.7396  -7.7335  -7.5769  -7.5186
    -7.5122  -7.4717  -7.4515  -7.4388  -7.4325  -7.4013  -7.3977  -7.3597
    -7.3488  -7.3438  -7.3244  -7.2827  -7.2410  -7.2308  -7.2175  -7.0209
    -7.0058  -6.9881  -6.9374  -6.8407  -6.6462  -6.5317  -6.2393  -6.2074
    -6.1777  -6.1497  -6.0855  -6.0742  -6.0677  -6.0652  -6.0543  -6.0468
    -6.0418  -6.0307  -6.0192  -5.9955  -5.8718  -5.8022  -5.7711  -5.6657
[...]
     atom:   55    charge:    2.6996    magn:    0.0001    constr:    0.0000
     atom:   56    charge:    2.7021    magn:    0.0001    constr:    0.0000
     atom:   57    charge:    2.7022    magn:    0.0023    constr:    0.0000
     atom:   58    charge:    2.7029    magn:   -0.0008    constr:    0.0000
     atom:   59    charge:    2.6918    magn:   -0.0263    constr:    0.0000
     atom:   60    charge:    2.6957    magn:    0.0088    constr:    0.0000
     atom:   61    charge:    2.7033    magn:   -0.0107    constr:    0.0000
     atom:   62    charge:    2.6984    magn:   -0.0059    constr:    0.0000
     atom:   63    charge:    2.6996    magn:    0.0001    constr:    0.0000
     atom:   64    charge:    2.7073    magn:   -0.0007    constr:    0.0000
     atom:   65    charge:    2.7065    magn:   -0.0057    constr:    0.0000
     atom:   66    charge:    2.7048    magn:    0.0208    constr:    0.0000
     atom:   67    charge:    1.7203    magn:    0.0782    constr:    0.0000
     atom:   68    charge:    2.6896    magn:   -0.0757    constr:    0.0000
     atom:   69    charge:    2.7033    magn:   -0.0107    constr:    0.0000
     atom:   70    charge:    2.7064    magn:   -0.0002    constr:    0.0000
     atom:   71    charge:    2.7058    magn:   -0.0004    constr:    0.0000
     atom:   72    charge:    2.7013    magn:    0.0001    constr:    0.0000
     atom:   73    charge:    2.6954    magn:   -0.0137    constr:    0.0000
     atom:   74    charge:    2.6632    magn:   -0.1156    constr:    0.0000
     atom:   75    charge:    1.7203    magn:    0.0782    constr:    0.0000
     atom:   76    charge:    2.6957    magn:    0.0088    constr:    0.0000
     atom:   77    charge:    2.7041    magn:   -0.0063    constr:    0.0000
     atom:   78    charge:    2.7049    magn:   -0.0003    constr:    0.0000
     atom:   79    charge:    2.7011    magn:   -0.0004    constr:    0.0000
     atom:   80    charge:    2.6970    magn:   -0.0082    constr:    0.0000
     atom:   81    charge:    2.6954    magn:   -0.0137    constr:    0.0000
     atom:   82    charge:    2.7048    magn:    0.0208    constr:    0.0000
     atom:   83    charge:    2.6918    magn:   -0.0263    constr:    0.0000
     atom:   84    charge:    2.6955    magn:   -0.0049    constr:    0.0000
     atom:   85    charge:    2.7022    magn:   -0.0011    constr:    0.0000
     atom:   86    charge:    2.7019    magn:   -0.0003    constr:    0.0000
     atom:   87    charge:    2.7011    magn:   -0.0004    constr:    0.0000
     atom:   88    charge:    2.7013    magn:    0.0001    constr:    0.0000
     atom:   89    charge:    2.7065    magn:   -0.0057    constr:    0.0000
     atom:   90    charge:    2.7029    magn:   -0.0008    constr:    0.0000
     atom:   91    charge:    2.7048    magn:   -0.0007    constr:    0.0000
     atom:   92    charge:    2.7084    magn:   -0.0010    constr:    0.0000
     atom:   93    charge:    2.7022    magn:   -0.0011    constr:    0.0000
     atom:   94    charge:    2.7049    magn:   -0.0003    constr:    0.0000
     atom:   95    charge:    2.7058    magn:   -0.0004    constr:    0.0000
     atom:   96    charge:    2.7073    magn:   -0.0007    constr:    0.0000
     atom:   97    charge:    2.7022    magn:    0.0023    constr:    0.0000
     atom:   98    charge:    2.7070    magn:   -0.0008    constr:    0.0000

     total cpu time spent up to now is     5494.9 secs

     End of self-consistent calculation

 ------ SPIN UP ------------


          k = 0.0000 0.0000 0.0000 ( 77463 PWs)   bands (ev):

   -21.7775 -21.5585 -21.4014 -21.3917 -21.3772 -21.3038 -21.2544 -20.8395
   -20.6618 -20.6426 -20.6288 -20.5529 -20.5400 -20.4223 -20.2920 -20.2916
   -20.2629 -20.1152 -20.1051 -19.5630 -19.4158 -19.4052 -19.3992 -19.3944
   -19.3852 -19.3769 -19.3599 -19.3141 -19.3084 -19.1668 -19.1626 -19.0355
   -18.9740 -18.9734 -18.9321 -18.7717 -18.7598 -18.5479 -18.5436 -18.5235
   -18.5125 -18.4702 -18.4196 -18.4000 -18.3684 -18.3470 -18.3290 -16.7294
   -14.8811 -13.1236 -12.7791 -12.7728 -12.7531 -12.7257 -12.7201 -12.6565
   -12.5689 -12.5364 -12.5263 -12.4810 -12.4104 -12.1545 -12.0710 -12.0571
   -12.0323 -11.9830 -11.9421 -11.5576 -11.4149 -11.4078 -11.3959 -11.3934
   -11.3751 -11.3645 -11.3629 -11.3123 -11.3011 -11.0926 -11.0478 -10.8743
   -10.7279 -10.7156 -10.6753 -10.6540 -10.5062 -10.0679 -10.0313 -10.0050
    -9.9360  -9.8811  -9.8203  -9.3981  -9.3236  -9.3137  -9.3133  -9.2938
    -9.2822  -9.2266  -9.0529  -8.9383  -8.9131  -8.9128  -8.9055  -8.8996
    -8.8904  -8.8814  -8.8799  -8.8659  -8.8361  -8.8309  -8.8270  -8.8240
    -8.8126  -8.8002  -8.7942  -8.7526  -8.7284  -8.6734  -8.6596  -8.6452
    -8.4769  -8.4577  -8.2213  -8.1964  -8.1958  -8.0975  -8.0759  -7.9001
    -7.8636  -7.8311  -7.8146  -7.8073  -7.7294  -7.7210  -7.5586  -7.5064
    -7.5039  -7.4784  -7.4572  -7.4467  -7.4318  -7.4037  -7.4021  -7.3418
    -7.3406  -7.3381  -7.3089  -7.2773  -7.2218  -7.2153  -7.2093  -7.0335
    -7.0314  -7.0020  -6.9002  -6.8233  -6.6584  -6.5466  -6.2138  -6.1957
    -6.1847  -6.1548  -6.0821  -6.0750  -6.0735  -6.0653  -6.0617  -6.0563
    -6.0463  -6.0336  -5.9963  -5.9822  -5.8697  -5.8228  -5.8091  -5.7092
    -5.5231  -5.4538  -5.4478  -5.4206  -5.3245  -5.2572  -5.1093  -5.0471
    -4.7865  -4.7844  -4.7600  -4.7538  -4.6734  -4.6729  -4.5650  -4.5193
    -4.5035  -4.4975  -4.2576  -3.4546  -0.0170   0.1767   0.6798   0.6815
     0.7076   0.7090   0.7201   0.7210   0.7744   0.7916   0.8044   0.8049
     0.8099   0.8287   0.8298   0.8513   0.8539   0.8976   0.9150   0.9224
     0.9261   1.1180   1.2009   1.2123   1.2323   1.2432   1.2914   1.3162
     1.3219   1.3260   1.3423   1.3566   1.3969   1.4360   1.4389   1.4413
     1.4525   1.4607   1.4872   1.8843   2.0881   2.0940   2.0946   2.1077
     2.1125   2.1257   2.1393   2.2092   2.3418

 ------ SPIN DOWN ----------


          k = 0.0000 0.0000 0.0000 ( 77463 PWs)   bands (ev):

   -21.7926 -21.5924 -21.4021 -21.3934 -21.3803 -21.3040 -21.2676 -20.8621
   -20.6674 -20.6532 -20.6233 -20.5532 -20.5436 -20.4295 -20.2953 -20.2893
   -20.2799 -20.1153 -20.1063 -19.5811 -19.4224 -19.4093 -19.4023 -19.3978
   -19.3876 -19.3767 -19.3696 -19.3273 -19.3019 -19.1736 -19.1707 -19.0401
   -18.9765 -18.9744 -18.9495 -18.7666 -18.7661 -18.5554 -18.5473 -18.5307
   -18.5219 -18.4749 -18.4287 -18.4056 -18.3706 -18.3516 -18.3442 -16.5663
   -14.6395 -13.0379 -12.7767 -12.7678 -12.7499 -12.7222 -12.7180 -12.6471
   -12.5669 -12.5299 -12.5235 -12.4613 -12.3984 -12.1466 -12.0690 -12.0558
   -12.0268 -11.9732 -11.9338 -11.5389 -11.4125 -11.4028 -11.3948 -11.3885
   -11.3742 -11.3634 -11.3610 -11.3067 -11.2901 -11.0673 -11.0239 -10.8621
   -10.7260 -10.7125 -10.6724 -10.6358 -10.4838 -10.0640 -10.0247 -10.0046
    -9.9268  -9.8714  -9.8073  -9.3965  -9.3180  -9.3135  -9.3035  -9.2918
    -9.2805  -9.2232  -9.0505  -8.9441  -8.9145  -8.9107  -8.9076  -8.8964
    -8.8922  -8.8877  -8.8798  -8.8631  -8.8341  -8.8307  -8.8250  -8.8213
    -8.8163  -8.7962  -8.7954  -8.7372  -8.7212  -8.6420  -8.6284  -8.6270
    -8.4633  -8.4381  -8.2224  -8.1969  -8.1955  -8.0732  -8.0707  -7.9234
    -7.8531  -7.8371  -7.8260  -7.7884  -7.7134  -7.6904  -7.5532  -7.5117
    -7.5027  -7.4760  -7.4560  -7.4508  -7.4454  -7.4046  -7.4034  -7.3440
    -7.3396  -7.3281  -7.3220  -7.2774  -7.2122  -7.1584  -7.1567  -7.0333
    -7.0294  -7.0022  -6.8609  -6.7978  -6.6422  -6.5219  -6.2383  -6.1937
    -6.1881  -6.1573  -6.0907  -6.0800  -6.0692  -6.0665  -6.0577  -6.0509
    -6.0426  -6.0404  -6.0146  -5.9592  -5.8154  -5.8087  -5.7867  -5.6865
    -5.5282  -5.4499  -5.4491  -5.4348  -5.2578  -5.2159  -5.0644  -4.9774
    -4.8013  -4.7888  -4.7783  -4.7646  -4.6767  -4.6570  -4.5693  -4.5184
    -4.5122  -4.5067  -4.1848  -2.8869   0.1835   0.4919   0.6998   0.7136
     0.7141   0.7330   0.7476   0.7492   0.7911   0.8031   0.8053   0.8078
     0.8114   0.8352   0.8549   0.8617   0.8863   0.9023   0.9465   0.9542
     1.0499   1.1665   1.2222   1.2575   1.2761   1.3158   1.3210   1.3258
     1.3378   1.3449   1.3497   1.3743   1.4218   1.4336   1.4364   1.4389
     1.4500   1.4589   1.4923   1.8872   2.0960   2.1003   2.1112   2.1219
     2.1548   2.1574   2.2865   2.3070   2.4477

     highest occupied, lowest unoccupied level (ev):    -4.1848   -4.2576

!    total energy              =   -1940.16876869 Ry
     Harris-Foulkes estimate   =   -1940.16876867 Ry
     estimated scf accuracy    <          8.8E-09 Ry

     total all-electron energy =     -7769.993245 Ry

     The total energy is the sum of the following terms:

     one-electron contribution =  -10645.28304741 Ry
     hartree contribution      =    5408.23330086 Ry
     xc contribution           =    -430.66812937 Ry
     ewald contribution        =    4370.99771147 Ry
     DFT-D3 Dispersion         =      -0.27015178 Ry
     one-center paw contrib.   =    -643.17845246 Ry

     total magnetization       =     1.00 Bohr mag/cell
     absolute magnetization    =     2.40 Bohr mag/cell

     convergence has been achieved in  18 iterations

     negative rho (up, down):  4.803E-01 1.385E-02

     Forces acting on atoms (cartesian axes, Ry/au):

     atom    1 type  1   force =    -0.00001430   -0.00030908    0.00000000
     atom    2 type  1   force =    -0.00020876   -0.00015975    0.00000000
     atom    3 type  1   force =    -0.00030878    0.00010294    0.00000000
     atom    4 type  1   force =    -0.00015309    0.00016504    0.00000000
     atom    5 type  1   force =     0.00032287   -0.00047004    0.00000000
     atom    6 type  1   force =     0.00011118   -0.00008690    0.00000000
     atom    7 type  1   force =    -0.00026563    0.00015017    0.00000000
     atom    8 type  1   force =    -0.00014048    0.00035595    0.00000000
     atom    9 type  1   force =     0.00007035    0.00009922    0.00000000
     atom   10 type  1   force =    -0.00022434   -0.00014637    0.00000000
     atom   11 type  1   force =    -0.00022479   -0.00021846    0.00000000
     atom   12 type  1   force =     0.00039000   -0.00012456    0.00000000
     atom   13 type  1   force =     0.00041538   -0.00024178    0.00000000
     atom   14 type  1   force =     0.00012882   -0.00005874    0.00000000
     atom   15 type  1   force =     0.00006168    0.00006986    0.00000000
     atom   16 type  1   force =    -0.00013313    0.00010908    0.00000000
     atom   17 type  1   force =    -0.00001769   -0.00024227    0.00000000
     atom   18 type  1   force =    -0.00012058   -0.00025067    0.00000000
     atom   19 type  1   force =     0.00002212   -0.00001260    0.00000000
     atom   20 type  1   force =     0.00030352   -0.00027875    0.00000000
     atom   21 type  1   force =     0.00056873   -0.00004860    0.00000000
     atom   22 type  1   force =     0.00032416   -0.00034385    0.00000000
     atom   23 type  1   force =    -0.00008416    0.00023967    0.00000000
     atom   24 type  1   force =    -0.00020936    0.00012236    0.00000000
     atom   25 type  4   force =     0.00000279   -0.00000540    0.00000000
     atom   26 type  1   force =     0.00015969    0.00022908    0.00000000
     atom   27 type  1   force =     0.00007909    0.00030045    0.00000000
     atom   28 type  1   force =    -0.00021831    0.00004896    0.00000000
     atom   29 type  1   force =    -0.00003293    0.00002589    0.00000000
     atom   30 type  1   force =     0.00004397   -0.00011134    0.00000000
     atom   31 type  1   force =    -0.00017145    0.00010332    0.00000000
     atom   32 type  1   force =    -0.00021048    0.00012616    0.00000000
     atom   33 type  1   force =     0.00020130    0.00013395    0.00000000
     atom   34 type  1   force =     0.00001614    0.00026832    0.00000000
     atom   35 type  1   force =    -0.00023747    0.00021419    0.00000000
     atom   36 type  1   force =    -0.00015257    0.00006077    0.00000000
     atom   37 type  1   force =     0.00000687   -0.00000298    0.00000000
     atom   38 type  1   force =     0.00011879    0.00002202    0.00000000
     atom   39 type  1   force =    -0.00025003   -0.00004259    0.00000000
     atom   40 type  1   force =    -0.00015826    0.00006471    0.00000000
     atom   41 type  1   force =    -0.00004270   -0.00011058    0.00000000
     atom   42 type  1   force =     0.00003698    0.00025679    0.00000000
     atom   43 type  1   force =    -0.00005242    0.00002839    0.00000000
     atom   44 type  1   force =    -0.00012997    0.00010249    0.00000000
     atom   45 type  1   force =    -0.00004017    0.00001934    0.00000000
     atom   46 type  1   force =     0.00045825   -0.00010657    0.00000000
     atom   47 type  1   force =    -0.00003147   -0.00008821    0.00000000
     atom   48 type  1   force =    -0.00038420   -0.00006268    0.00000000
     atom   49 type  1   force =     0.00025586    0.00015980    0.00000000
     atom   50 type  2   force =     0.00021723   -0.00003720    0.00000000
     atom   51 type  2   force =     0.00005227   -0.00023384    0.00000000
     atom   52 type  2   force =    -0.00039169   -0.00028401    0.00000000
     atom   53 type  2   force =    -0.00018526    0.00002238    0.00000000
     atom   54 type  2   force =     0.00046206    0.00017717    0.00000000
     atom   55 type  2   force =     0.00002261    0.00008939    0.00000000
     atom   56 type  2   force =     0.00011868   -0.00006612    0.00000000
     atom   57 type  2   force =    -0.00013070   -0.00019290    0.00000000
     atom   58 type  2   force =    -0.00006444   -0.00036127    0.00000000
     atom   59 type  2   force =    -0.00025030   -0.00048612    0.00000000
     atom   60 type  2   force =    -0.00053530   -0.00001948    0.00000000
     atom   61 type  2   force =    -0.00035134   -0.00001941    0.00000000
     atom   62 type  2   force =     0.00005712   -0.00003029    0.00000000
     atom   63 type  2   force =    -0.00006493   -0.00006142    0.00000000
     atom   64 type  2   force =    -0.00024643   -0.00007130    0.00000000
     atom   65 type  2   force =    -0.00007155   -0.00028294    0.00000000
     atom   66 type  2   force =     0.00010271   -0.00019722    0.00000000
     atom   67 type  3   force =    -0.00016064   -0.00036912    0.00000000
     atom   68 type  2   force =    -0.00042838    0.00024731    0.00000000
     atom   69 type  2   force =    -0.00015942    0.00031771    0.00000000
     atom   70 type  2   force =     0.00007839   -0.00048707    0.00000000
     atom   71 type  2   force =     0.00013483   -0.00031147    0.00000000
     atom   72 type  2   force =    -0.00028525   -0.00006900    0.00000000
     atom   73 type  2   force =    -0.00013601   -0.00005077    0.00000000
     atom   74 type  2   force =     0.00038434   -0.00022068    0.00000000
     atom   75 type  5   force =     0.00023792    0.00032931    0.00000000
     atom   76 type  2   force =    -0.00025513    0.00047499    0.00000000
     atom   77 type  2   force =    -0.00011460    0.00014908    0.00000000
     atom   78 type  2   force =     0.00005535   -0.00029324    0.00000000
     atom   79 type  2   force =    -0.00014031    0.00007229    0.00000000
     atom   80 type  2   force =    -0.00009183    0.00005224    0.00000000
     atom   81 type  2   force =    -0.00002344    0.00013775    0.00000000
     atom   82 type  2   force =     0.00021874    0.00000295    0.00000000
     atom   83 type  2   force =     0.00029100    0.00045956    0.00000000
     atom   84 type  2   force =     0.00004516    0.00048380    0.00000000
     atom   85 type  2   force =    -0.00005176   -0.00026251    0.00000000
     atom   86 type  2   force =     0.00002706   -0.00001587    0.00000000
     atom   87 type  2   force =    -0.00013316    0.00008333    0.00000000
     atom   88 type  2   force =    -0.00008248    0.00027727    0.00000000
     atom   89 type  2   force =     0.00020980    0.00020104    0.00000000
     atom   90 type  2   force =     0.00028127    0.00024022    0.00000000
     atom   91 type  2   force =     0.00022877    0.00007628    0.00000000
     atom   92 type  2   force =     0.00023546   -0.00013312    0.00000000
     atom   93 type  2   force =     0.00020300    0.00017669    0.00000000
     atom   94 type  2   force =     0.00028291    0.00009600    0.00000000
     atom   95 type  2   force =     0.00033695    0.00003631    0.00000000
     atom   96 type  2   force =    -0.00005928    0.00024956    0.00000000
     atom   97 type  2   force =     0.00010541    0.00021254    0.00000000
     atom   98 type  2   force =     0.00014359   -0.00016495    0.00000000

     Total force =     0.002995     Total SCF correction =     0.000190


     Computing stress (Cartesian axis) and pressure


     negative rho (up, down):  4.803E-01 1.385E-02
          total   stress  (Ry/bohr**3)                   (kbar)     P=   -0.12
   0.00000043  -0.00000000   0.00000000          0.06     -0.00      0.00
  -0.00000000   0.00000043   0.00000000         -0.00      0.06      0.00
   0.00000000   0.00000000  -0.00000334          0.00      0.00     -0.49


     Writing output data file C2Cn.save/
 
     init_run     :      8.47s CPU      8.73s WALL (       2 calls)
     electrons    :   5269.30s CPU   5311.81s WALL (      10 calls)
     update_pot   :     24.93s CPU     25.04s WALL (       8 calls)
     forces       :     35.19s CPU     35.71s WALL (      10 calls)
     stress       :    117.18s CPU    117.87s WALL (      10 calls)

     Called by init_run:
     wfcinit      :      3.33s CPU      3.45s WALL (       2 calls)
     potinit      :      1.79s CPU      1.82s WALL (       2 calls)
     hinit0       :      2.48s CPU      2.51s WALL (       2 calls)

     Called by electrons:
     c_bands      :   5119.33s CPU   5155.97s WALL (     137 calls)
     sum_band     :     79.02s CPU     81.03s WALL (     137 calls)
     v_of_rho     :     24.49s CPU     25.02s WALL (     144 calls)
     newd         :      8.47s CPU      9.73s WALL (     144 calls)
     PAW_pot      :     28.11s CPU     28.30s WALL (     152 calls)
     mix_rho      :      2.36s CPU      2.49s WALL (     137 calls)

     Called by c_bands:
     init_us_2    :      5.29s CPU      5.37s WALL (     608 calls)
     rcgdiagg     :   4976.97s CPU   5010.76s WALL (     296 calls)
     wfcrot       :    141.26s CPU    143.69s WALL (     274 calls)

     Called by sum_band:
     sum_band:bec :      0.16s CPU      0.16s WALL (     290 calls)
     addusdens    :      8.97s CPU     10.25s WALL (     137 calls)

     Called by *cgdiagg:
     h_psi        :   2532.37s CPU   2550.67s WALL (  222356 calls)
     s_psi        :   1483.99s CPU   1493.87s WALL (  444438 calls)
     rdiaghg      :      3.99s CPU      4.10s WALL (     274 calls)

     Called by h_psi:
     h_psi:pot    :   2529.83s CPU   2548.10s WALL (  222356 calls)
     h_psi:calbec :    910.64s CPU    916.93s WALL (  222356 calls)
     vloc_psi     :    861.62s CPU    869.74s WALL (  222356 calls)
     add_vuspsi   :    755.51s CPU    759.93s WALL (  222356 calls)
     hs_1psi      :   3150.60s CPU   3171.76s WALL (  222082 calls)
     s_1psi       :   1530.70s CPU   1540.23s WALL (  222082 calls)

     General routines
     calbec       :   1706.53s CPU   1718.91s WALL (  444828 calls)
     fft          :     21.37s CPU     21.57s WALL (    2772 calls)
     ffts         :      1.02s CPU      1.04s WALL (     274 calls)
     fftw         :    817.71s CPU    825.47s WALL (  545854 calls)
 
     Parallel routines
     fft_scatt_xy :     79.05s CPU     79.68s WALL (  548900 calls)
     fft_scatt_yz :    261.33s CPU    264.21s WALL (  548900 calls)
 
     PWSCF        :      1h31m CPU      1h31m WALL

 
   This run was terminated on:  15:15:50   1Jul2021            

=------------------------------------------------------------------------------=
   JOB DONE.
=------------------------------------------------------------------------------=
