
     Program PWSCF v.6.4.1 starts on  9Jun2021 at 13:39:58 

     This program is part of the open-source Quantum ESPRESSO suite
     for quantum simulation of materials; please cite
         "P. Giannozzi et al., J. Phys.:Condens. Matter 21 395502 (2009);
         "P. Giannozzi et al., J. Phys.:Condens. Matter 29 465901 (2017);
          URL http://www.quantum-espresso.org", 
     in publications or presentations arising from this work. More details at
     http://www.quantum-espresso.org/quote

     Parallel version (MPI), running on    64 processors

     MPI processes distributed on     2 nodes
     R & G space division:  proc/nbgrp/npool/nimage =      64
     Waiting for input...
     Reading input from standard input

     Current dimensions of program PWSCF are:
     Max number of different atomic species (ntypx) = 10
     Max number of k-points (npk) =  40000
     Max angular momentum in pseudopotentials (lmaxx) =  3
               file N.pbe-n-kjpaw_psl.1.0.0.UPF: wavefunction(s)  2S renormalized
               file C.pbe-n-kjpaw_psl.1.0.0.UPF: wavefunction(s)  2S 2P renormalized
               file C.pbe-n-kjpaw_psl.1.0.0.UPF: wavefunction(s)  2S 2P renormalized
               file C.pbe-n-kjpaw_psl.1.0.0.UPF: wavefunction(s)  2S 2P renormalized

     --------------------------------------------
     Parameters for DFT-D3 Dispersion Correction:
     --------------------------------------------
       Reference C6 values for interpolation: 

         atom   Coordination number   C6
         B          0.000           214.36
         B          0.971           150.74
         B          1.944           106.23
         B          2.913            62.89
         B          4.586            56.06
         C1         0.000            98.23
         C1         0.987            86.49
         C1         1.998            58.72
         C1         2.999            51.56
         C1         3.984            36.41
         C2         0.000            98.23
         C2         0.987            86.49
         C2         1.998            58.72
         C2         2.999            51.56
         C2         3.984            36.41
         C3         0.000            98.23
         C3         0.987            86.49
         C3         1.998            58.72
         C3         2.999            51.56
         C3         3.984            36.41
         N          0.000            50.54
         N          0.994            44.25
         N          2.014            39.35
         N          2.990            31.16

       Values used:

         atom   Coordination number  R0_AB[au]  C6      C8
         B          3.326            3.039     62.90   2506.22
         B          3.317            3.039     62.90   2506.45
         B          3.318            3.039     62.90   2506.43
         B          3.324            3.039     62.90   2506.29
         B          3.325            3.039     62.90   2506.25
         B          3.323            3.039     62.90   2506.29
         B          3.326            3.039     62.90   2506.23
         B          3.324            3.039     62.90   2506.27
         B          3.323            3.039     62.90   2506.30
         B          3.306            3.039     62.91   2506.69
         B          3.319            3.039     62.90   2506.40
         B          3.325            3.039     62.90   2506.26
         B          3.323            3.039     62.90   2506.30
         B          3.323            3.039     62.90   2506.29
         B          3.324            3.039     62.90   2506.29
         B          3.326            3.039     62.90   2506.23
         B          3.294            3.039     62.92   2506.96
         B          3.280            3.039     62.92   2507.27
         B          3.322            3.039     62.90   2506.33
         B          3.325            3.039     62.90   2506.26
         B          3.325            3.039     62.90   2506.25
         B          3.322            3.039     62.90   2506.33
         B          3.317            3.039     62.90   2506.43
         B          3.304            3.039     62.91   2506.72
         C2         3.236            2.750     49.61   1434.71
         B          3.280            3.039     62.92   2507.27
         B          3.319            3.039     62.90   2506.40
         B          3.324            3.039     62.90   2506.29
         B          3.319            3.039     62.90   2506.38
         B          3.316            3.039     62.90   2506.46
         B          3.305            3.039     62.91   2506.70
         B          3.304            3.039     62.91   2506.72
         B          3.294            3.039     62.92   2506.96
         B          3.306            3.039     62.91   2506.69
         B          3.318            3.039     62.90   2506.43
         B          3.316            3.039     62.90   2506.47
         B          3.316            3.039     62.90   2506.46
         B          3.316            3.039     62.90   2506.46
         B          3.317            3.039     62.90   2506.43
         B          3.326            3.039     62.90   2506.23
         B          3.323            3.039     62.90   2506.30
         B          3.317            3.039     62.90   2506.45
         B          3.319            3.039     62.90   2506.40
         B          3.316            3.039     62.90   2506.47
         B          3.319            3.039     62.90   2506.38
         B          3.322            3.039     62.90   2506.33
         B          3.324            3.039     62.90   2506.29
         B          3.324            3.039     62.90   2506.27
         B          3.326            3.039     62.90   2506.22
         N          3.129            2.478     31.22    688.74
         N          3.129            2.478     31.22    688.75
         N          3.125            2.478     31.22    688.78
         N          3.128            2.478     31.22    688.76
         N          3.129            2.478     31.22    688.74
         N          3.128            2.478     31.22    688.75
         N          3.128            2.478     31.22    688.75
         N          3.128            2.478     31.22    688.75
         N          3.129            2.478     31.22    688.75
         N          3.125            2.478     31.22    688.78
         N          3.123            2.478     31.22    688.80
         N          3.129            2.478     31.22    688.74
         N          3.128            2.478     31.22    688.75
         N          3.128            2.478     31.22    688.75
         N          3.129            2.478     31.22    688.74
         N          3.129            2.478     31.22    688.74
         N          3.130            2.478     31.22    688.73
         C1         3.176            2.750     50.30   1454.83
         N          3.127            2.478     31.22    688.77
         N          3.129            2.478     31.22    688.74
         N          3.129            2.478     31.22    688.74
         N          3.128            2.478     31.22    688.75
         N          3.126            2.478     31.22    688.77
         N          3.123            2.478     31.22    688.81
         N          3.144            2.478     31.21    688.61
         C3         3.176            2.750     50.30   1454.83
         N          3.123            2.478     31.22    688.80
         N          3.128            2.478     31.22    688.76
         N          3.127            2.478     31.22    688.77
         N          3.126            2.478     31.22    688.77
         N          3.125            2.478     31.22    688.79
         N          3.123            2.478     31.22    688.81
         N          3.130            2.478     31.22    688.73
         N          3.125            2.478     31.22    688.78
         N          3.125            2.478     31.22    688.78
         N          3.126            2.478     31.22    688.77
         N          3.126            2.478     31.22    688.78
         N          3.126            2.478     31.22    688.77
         N          3.126            2.478     31.22    688.77
         N          3.129            2.478     31.22    688.74
         N          3.129            2.478     31.22    688.75
         N          3.129            2.478     31.22    688.75
         N          3.129            2.478     31.22    688.74
         N          3.126            2.478     31.22    688.77
         N          3.127            2.478     31.22    688.77
         N          3.128            2.478     31.22    688.75
         N          3.129            2.478     31.22    688.74
         N          3.128            2.478     31.22    688.75
         N          3.129            2.478     31.22    688.74

         Molecular C6 ( Ry / a.u.^6 ) =    437752.73


     gamma-point specific algorithms are used

     Subspace diagonalization in iterative solution of the eigenvalue problem:
     one sub-group per band group will be used
     scalapack distributed-memory algorithm (size of sub-group:  5*  5 procs)

     Message from routine setup:
     DEPRECATED: symmetry with ibrav=0, use correct ibrav instead
 
     Parallelization info
     --------------------
     sticks:   dense  smooth     PW     G-vecs:    dense   smooth      PW
     Min         189     189     46                19338    19338    2406
     Max         192     192     48                19354    19354    2428
     Sum       12173   12173   3053              1238233  1238233  154941
 


     bravais-lattice index     =            0
     lattice parameter (alat)  =      33.2346  a.u.
     unit-cell volume          =   36235.0681 (a.u.)^3
     number of atoms/cell      =           98
     number of atomic types    =            5
     number of electrons       =       391.00
     number of Kohn-Sham states=          245
     kinetic-energy cutoff     =      40.0000  Ry
     charge density cutoff     =     160.0000  Ry
     convergence threshold     =      1.0E-10
     mixing beta               =       0.7000
     number of iterations used =            8  plain     mixing
     Exchange-correlation      = SLA PW PBX PBC ( 1  4  3  4 0 0)
     Using LIBXC version       =    4   3   4
     nstep                     =           50


     celldm(1)=  33.234611  celldm(2)=   0.000000  celldm(3)=   0.000000
     celldm(4)=   0.000000  celldm(5)=   0.000000  celldm(6)=   0.000000

     crystal axes: (cart. coord. in units of alat)
               a(1) = (   1.001024   0.000198   0.000000 )  
               a(2) = (  -0.500341   0.867011   0.000000 )  
               a(3) = (   0.000000   0.000000   1.137204 )  

     reciprocal axes: (cart. coord. in units 2 pi/alat)
               b(1) = (  0.998863  0.576431  0.000000 )  
               b(2) = ( -0.000228  1.153256  0.000000 )  
               b(3) = (  0.000000  0.000000  0.879350 )  


     PseudoPot. # 1 for B  read from file:
     ./pseudo/B.pbe-n-kjpaw_psl.1.0.0.UPF
     MD5 check sum: 8c825a5969375aca5c2c6ad5945b3059
     Pseudo is Projector augmented-wave + core cor, Zval =  3.0
     Generated using "atomic" code by A. Dal Corso v.6.3
     Shape of augmentation charge: PSQ
     Using radial grid of 1059 points,  4 beta functions with: 
                l(1) =   0
                l(2) =   0
                l(3) =   1
                l(4) =   1
     Q(r) pseudized with 0 coefficients 


     PseudoPot. # 2 for N  read from file:
     ./pseudo/N.pbe-n-kjpaw_psl.1.0.0.UPF
     MD5 check sum: 14c48229446f9f2d411169a3abcbc3fa
     Pseudo is Projector augmented-wave + core cor, Zval =  5.0
     Generated using "atomic" code by A. Dal Corso v.6.3
     Shape of augmentation charge: PSQ
     Using radial grid of 1085 points,  4 beta functions with: 
                l(1) =   0
                l(2) =   0
                l(3) =   1
                l(4) =   1
     Q(r) pseudized with 0 coefficients 


     PseudoPot. # 3 for C  read from file:
     ./pseudo/C.pbe-n-kjpaw_psl.1.0.0.UPF
     MD5 check sum: 5f16ad9a65e90284d1d834d4ab3b0f7d
     Pseudo is Projector augmented-wave + core cor, Zval =  4.0
     Generated using "atomic" code by A. Dal Corso v.6.3
     Shape of augmentation charge: PSQ
     Using radial grid of 1073 points,  4 beta functions with: 
                l(1) =   0
                l(2) =   0
                l(3) =   1
                l(4) =   1
     Q(r) pseudized with 0 coefficients 


     PseudoPot. # 4 for C  read from file:
     ./pseudo/C.pbe-n-kjpaw_psl.1.0.0.UPF
     MD5 check sum: 5f16ad9a65e90284d1d834d4ab3b0f7d
     Pseudo is Projector augmented-wave + core cor, Zval =  4.0
     Generated using "atomic" code by A. Dal Corso v.6.3
     Shape of augmentation charge: PSQ
     Using radial grid of 1073 points,  4 beta functions with: 
                l(1) =   0
                l(2) =   0
                l(3) =   1
                l(4) =   1
     Q(r) pseudized with 0 coefficients 


     PseudoPot. # 5 for C  read from file:
     ./pseudo/C.pbe-n-kjpaw_psl.1.0.0.UPF
     MD5 check sum: 5f16ad9a65e90284d1d834d4ab3b0f7d
     Pseudo is Projector augmented-wave + core cor, Zval =  4.0
     Generated using "atomic" code by A. Dal Corso v.6.3
     Shape of augmentation charge: PSQ
     Using radial grid of 1073 points,  4 beta functions with: 
                l(1) =   0
                l(2) =   0
                l(3) =   1
                l(4) =   1
     Q(r) pseudized with 0 coefficients 


     atomic species   valence    mass     pseudopotential
        B              3.00    10.00000     B ( 1.00)
        N              5.00    14.00000     N ( 1.00)
        C1             4.00    12.00000     C ( 1.00)
        C2             4.00    12.00000     C ( 1.00)
        C3             4.00    12.00000     C ( 1.00)

     Starting magnetic structure 
     atomic species   magnetization
        B            0.000
        N            0.000
        C1           1.000
        C2           0.000
        C3           0.000

      2 Sym. Ops. (no inversion) found



   Cartesian axes

     site n.     atom                  positions (alat units)
         1           B   tau(   1) = (  -0.0000587   0.0820877   0.5686018  )
         2           B   tau(   2) = (  -0.0715989   0.2061594   0.5686018  )
         3           B   tau(   3) = (  -0.1432506   0.3302576   0.5686018  )
         4           B   tau(   4) = (  -0.2148066   0.4541108   0.5686018  )
         5           B   tau(   5) = (  -0.2858273   0.5779850   0.5686018  )
         6           B   tau(   6) = (  -0.3570877   0.7019566   0.5686018  )
         7           B   tau(   7) = (  -0.4287028   0.8256511   0.5686018  )
         8           B   tau(   8) = (   0.1429017   0.0817735   0.5686018  )
         9           B   tau(   9) = (   0.0710524   0.2050308   0.5686018  )
        10           B   tau(  10) = (  -0.0002598   0.3301474   0.5686018  )
        11           B   tau(  11) = (  -0.0723648   0.4541177   0.5686018  )
        12           B   tau(  12) = (  -0.1437465   0.5781403   0.5686018  )
        13           B   tau(  13) = (  -0.2145014   0.7019821   0.5686018  )
        14           B   tau(  14) = (  -0.2857724   0.8254781   0.5686018  )
        15           B   tau(  15) = (   0.2863562   0.0817869   0.5686018  )
        16           B   tau(  16) = (   0.2148545   0.2045918   0.5686018  )
        17           B   tau(  17) = (   0.1429709   0.3270174   0.5686018  )
        18           B   tau(  18) = (   0.0698887   0.4554633   0.5686018  )
        19           B   tau(  19) = (  -0.0019854   0.5792858   0.5686018  )
        20           B   tau(  20) = (  -0.0718739   0.7026275   0.5686018  )
        21           B   tau(  21) = (  -0.1427797   0.8257507   0.5686018  )
        22           B   tau(  22) = (   0.4291410   0.0825623   0.5686018  )
        23           B   tau(  23) = (   0.3575842   0.2061285   0.5686018  )
        24           B   tau(  24) = (   0.2853498   0.3291011   0.5686018  )
        25           C2  tau(  25) = (   0.2166842   0.4530368   0.5686018  )
        26           B   tau(  26) = (   0.1411851   0.5789522   0.5686018  )
        27           B   tau(  27) = (   0.0712236   0.7028203   0.5686018  )
        28           B   tau(  28) = (   0.0000086   0.8261821   0.5686018  )
        29           B   tau(  29) = (   0.5719296   0.0827424   0.5686018  )
        30           B   tau(  30) = (   0.5005284   0.2064843   0.5686018  )
        31           B   tau(  31) = (   0.4290600   0.3304216   0.5686018  )
        32           B   tau(  32) = (   0.3583484   0.4555386   0.5686018  )
        33           B   tau(  33) = (   0.2889636   0.5798842   0.5686018  )
        34           B   tau(  34) = (   0.2146377   0.7023606   0.5686018  )
        35           B   tau(  35) = (   0.1430467   0.8261392   0.5686018  )
        36           B   tau(  36) = (   0.7149408   0.0827940   0.5686018  )
        37           B   tau(  37) = (   0.6434256   0.2066575   0.5686018  )
        38           B   tau(  38) = (   0.5721270   0.3304967   0.5686018  )
        39           B   tau(  39) = (   0.5009630   0.4544680   0.5686018  )
        40           B   tau(  40) = (   0.4309289   0.5788440   0.5686018  )
        41           B   tau(  41) = (   0.3586478   0.7031608   0.5686018  )
        42           B   tau(  42) = (   0.2863449   0.8261360   0.5686018  )
        43           B   tau(  43) = (   0.8581159   0.0827060   0.5686018  )
        44           B   tau(  44) = (   0.7864521   0.2066553   0.5686018  )
        45           B   tau(  45) = (   0.7149913   0.3305324   0.5686018  )
        46           B   tau(  46) = (   0.6437530   0.4542810   0.5686018  )
        47           B   tau(  47) = (   0.5730320   0.5783242   0.5686018  )
        48           B   tau(  48) = (   0.5013163   0.7025661   0.5686018  )
        49           B   tau(  49) = (   0.4295640   0.8262161   0.5686018  )
        50           N   tau(  50) = (   0.0714357   0.0409173   0.5686018  )
        51           N   tau(  51) = (  -0.0003708   0.1643972   0.5686018  )
        52           N   tau(  52) = (  -0.0717144   0.2888484   0.5686018  )
        53           N   tau(  53) = (  -0.1435594   0.4127512   0.5686018  )
        54           N   tau(  54) = (  -0.2148342   0.5366150   0.5686018  )
        55           N   tau(  55) = (  -0.2858018   0.6605727   0.5686018  )
        56           N   tau(  56) = (  -0.3572190   0.7843800   0.5686018  )
        57           N   tau(  57) = (   0.2146443   0.0408347   0.5686018  )
        58           N   tau(  58) = (   0.1428404   0.1640198   0.5686018  )
        59           N   tau(  59) = (   0.0709195   0.2873854   0.5686018  )
        60           N   tau(  60) = (  -0.0009708   0.4129651   0.5686018  )
        61           N   tau(  61) = (  -0.0727989   0.5369287   0.5686018  )
        62           N   tau(  62) = (  -0.1432004   0.6608162   0.5686018  )
        63           N   tau(  63) = (  -0.2142902   0.7844344   0.5686018  )
        64           N   tau(  64) = (   0.3578218   0.0411065   0.5686018  )
        65           N   tau(  65) = (   0.2866104   0.1641352   0.5686018  )
        66           N   tau(  66) = (   0.2150456   0.2863173   0.5686018  )
        67           C1  tau(  67) = (   0.1450739   0.4126906   0.5686018  )
        68           N   tau(  68) = (   0.0685413   0.5385671   0.5686018  )
        69           N   tau(  69) = (  -0.0007098   0.6617906   0.5686018  )
        70           N   tau(  70) = (  -0.0714558   0.7849536   0.5686018  )
        71           N   tau(  71) = (   0.5005200   0.0415892   0.5686018  )
        72           N   tau(  72) = (   0.4290985   0.1652504   0.5686018  )
        73           N   tau(  73) = (   0.3572698   0.2892553   0.5686018  )
        74           N   tau(  74) = (   0.2850050   0.4135918   0.5686018  )
        75           C3  tau(  75) = (   0.2158200   0.5352263   0.5686018  )
        76           N   tau(  76) = (   0.1425599   0.6615674   0.5686018  )
        77           N   tau(  77) = (   0.0714508   0.7851598   0.5686018  )
        78           N   tau(  78) = (   0.6434228   0.0416277   0.5686018  )
        79           N   tau(  79) = (   0.5719326   0.1653634   0.5686018  )
        80           N   tau(  80) = (   0.5003534   0.2892604   0.5686018  )
        81           N   tau(  81) = (   0.4288160   0.4131769   0.5686018  )
        82           N   tau(  82) = (   0.3602483   0.5378157   0.5686018  )
        83           N   tau(  83) = (   0.2872602   0.6620984   0.5686018  )
        84           N   tau(  84) = (   0.2146763   0.7848916   0.5686018  )
        85           N   tau(  85) = (   0.7865123   0.0415974   0.5686018  )
        86           N   tau(  86) = (   0.7149090   0.1653866   0.5686018  )
        87           N   tau(  87) = (   0.6434409   0.2892195   0.5686018  )
        88           N   tau(  88) = (   0.5721218   0.4129740   0.5686018  )
        89           N   tau(  89) = (   0.5018436   0.5369298   0.5686018  )
        90           N   tau(  90) = (   0.4300584   0.6614958   0.5686018  )
        91           N   tau(  91) = (   0.3581260   0.7853318   0.5686018  )
        92           N   tau(  92) = (   0.9295484   0.0414646   0.5686018  )
        93           N   tau(  93) = (   0.8579154   0.1652710   0.5686018  )
        94           N   tau(  94) = (   0.7863443   0.2891750   0.5686018  )
        95           N   tau(  95) = (   0.7149263   0.4129518   0.5686018  )
        96           N   tau(  96) = (   0.6439952   0.5367733   0.5686018  )
        97           N   tau(  97) = (   0.5726419   0.6609045   0.5686018  )
        98           N   tau(  98) = (   0.5009660   0.7848854   0.5686018  )

     number of k points=     1
                       cart. coord. in units 2pi/alat
        k(    1) = (   0.0000000   0.0000000   0.0000000), wk =   1.0000000

     Dense  grid:   619117 G-vectors     FFT dimensions: ( 135, 135, 160)

     Occupations read from input 

      Spin-up

        1.0000   1.0000   1.0000   1.0000   1.0000   1.0000   1.0000   1.0000
        1.0000   1.0000   1.0000   1.0000   1.0000   1.0000   1.0000   1.0000
        1.0000   1.0000   1.0000   1.0000   1.0000   1.0000   1.0000   1.0000
        1.0000   1.0000   1.0000   1.0000   1.0000   1.0000   1.0000   1.0000
        1.0000   1.0000   1.0000   1.0000   1.0000   1.0000   1.0000   1.0000
        1.0000   1.0000   1.0000   1.0000   1.0000   1.0000   1.0000   1.0000
        1.0000   1.0000   1.0000   1.0000   1.0000   1.0000   1.0000   1.0000
        1.0000   1.0000   1.0000   1.0000   1.0000   1.0000   1.0000   1.0000
        1.0000   1.0000   1.0000   1.0000   1.0000   1.0000   1.0000   1.0000
        1.0000   1.0000   1.0000   1.0000   1.0000   1.0000   1.0000   1.0000
        1.0000   1.0000   1.0000   1.0000   1.0000   1.0000   1.0000   1.0000
        1.0000   1.0000   1.0000   1.0000   1.0000   1.0000   1.0000   1.0000
        1.0000   1.0000   1.0000   1.0000   1.0000   1.0000   1.0000   1.0000
        1.0000   1.0000   1.0000   1.0000   1.0000   1.0000   1.0000   1.0000
        1.0000   1.0000   1.0000   1.0000   1.0000   1.0000   1.0000   1.0000
        1.0000   1.0000   1.0000   1.0000   1.0000   1.0000   1.0000   1.0000
        1.0000   1.0000   1.0000   1.0000   1.0000   1.0000   1.0000   1.0000
        1.0000   1.0000   1.0000   1.0000   1.0000   1.0000   1.0000   1.0000
        1.0000   1.0000   1.0000   1.0000   1.0000   1.0000   1.0000   1.0000
        1.0000   1.0000   1.0000   1.0000   1.0000   1.0000   1.0000   1.0000
        1.0000   1.0000   1.0000   1.0000   1.0000   1.0000   1.0000   1.0000
        1.0000   1.0000   1.0000   1.0000   1.0000   1.0000   1.0000   1.0000
        1.0000   1.0000   1.0000   1.0000   1.0000   1.0000   1.0000   1.0000
        1.0000   1.0000   1.0000   1.0000   1.0000   1.0000   1.0000   1.0000
        1.0000   1.0000   1.0000   1.0000   0.0000   0.0000   0.0000   0.0000
        0.0000   0.0000   0.0000   0.0000   0.0000   0.0000   0.0000   0.0000
        0.0000   0.0000   0.0000   0.0000   0.0000   0.0000   0.0000   0.0000
        0.0000   0.0000   0.0000   0.0000   0.0000   0.0000   0.0000   0.0000
        0.0000   0.0000   0.0000   0.0000   0.0000   0.0000   0.0000   0.0000
        0.0000   0.0000   0.0000   0.0000   0.0000   0.0000   0.0000   0.0000
        0.0000   0.0000   0.0000   0.0000   0.0000

      Spin-down

        1.0000   1.0000   1.0000   1.0000   1.0000   1.0000   1.0000   1.0000
        1.0000   1.0000   1.0000   1.0000   1.0000   1.0000   1.0000   1.0000
        1.0000   1.0000   1.0000   1.0000   1.0000   1.0000   1.0000   1.0000
        1.0000   1.0000   1.0000   1.0000   1.0000   1.0000   1.0000   1.0000
        1.0000   1.0000   1.0000   1.0000   1.0000   1.0000   1.0000   1.0000
        1.0000   1.0000   1.0000   1.0000   1.0000   1.0000   1.0000   1.0000
        1.0000   1.0000   1.0000   1.0000   1.0000   1.0000   1.0000   1.0000
        1.0000   1.0000   1.0000   1.0000   1.0000   1.0000   1.0000   1.0000
        1.0000   1.0000   1.0000   1.0000   1.0000   1.0000   1.0000   1.0000
        1.0000   1.0000   1.0000   1.0000   1.0000   1.0000   1.0000   1.0000
        1.0000   1.0000   1.0000   1.0000   1.0000   1.0000   1.0000   1.0000
        1.0000   1.0000   1.0000   1.0000   1.0000   1.0000   1.0000   1.0000
        1.0000   1.0000   1.0000   1.0000   1.0000   1.0000   1.0000   1.0000
        1.0000   1.0000   1.0000   1.0000   1.0000   1.0000   1.0000   1.0000
        1.0000   1.0000   1.0000   1.0000   1.0000   1.0000   1.0000   1.0000
        1.0000   1.0000   1.0000   1.0000   1.0000   1.0000   1.0000   1.0000
        1.0000   1.0000   1.0000   1.0000   1.0000   1.0000   1.0000   1.0000
        1.0000   1.0000   1.0000   1.0000   1.0000   1.0000   1.0000   1.0000
        1.0000   1.0000   1.0000   1.0000   1.0000   1.0000   1.0000   1.0000
        1.0000   1.0000   1.0000   1.0000   1.0000   1.0000   1.0000   1.0000
        1.0000   1.0000   1.0000   1.0000   1.0000   1.0000   1.0000   1.0000
        1.0000   1.0000   1.0000   1.0000   1.0000   1.0000   1.0000   1.0000
        1.0000   1.0000   1.0000   1.0000   1.0000   1.0000   1.0000   1.0000
        1.0000   1.0000   1.0000   1.0000   1.0000   1.0000   1.0000   1.0000
        1.0000   1.0000   0.0000   0.0000   1.0000   0.0000   0.0000   0.0000
        0.0000   0.0000   0.0000   0.0000   0.0000   0.0000   0.0000   0.0000
        0.0000   0.0000   0.0000   0.0000   0.0000   0.0000   0.0000   0.0000
        0.0000   0.0000   0.0000   0.0000   0.0000   0.0000   0.0000   0.0000
        0.0000   0.0000   0.0000   0.0000   0.0000   0.0000   0.0000   0.0000
        0.0000   0.0000   0.0000   0.0000   0.0000   0.0000   0.0000   0.0000
        0.0000   0.0000   0.0000   0.0000   0.0000

     Estimated max dynamical RAM per process >     122.44 MB

     Estimated total dynamical RAM >       7.65 GB
     Generating pointlists ...
     new r_m :   0.0336 (alat units)  1.1164 (a.u.) for type    1
     new r_m :   0.0325 (alat units)  1.0815 (a.u.) for type    2
     new r_m :   0.0339 (alat units)  1.1268 (a.u.) for type    3
     new r_m :   0.0325 (alat units)  1.0815 (a.u.) for type    4
     new r_m :   0.0339 (alat units)  1.1268 (a.u.) for type    5

     Check: negative core charge=   -0.000006

     Initial potential from superposition of free atoms

     starting charge  390.98597, renormalised to  391.00000

     negative rho (up, down):  5.511E-02 5.798E-02
     Starting wfcs are  392 randomized atomic wfcs
     Checking if some PAW data can be deallocated... 

     total cpu time spent up to now is        7.6 secs

     Self-consistent Calculation

     iteration #  1     ecut=    40.00 Ry     beta= 0.70
     CG style diagonalization
     ethr =  1.00E-02,  avg # of iterations =  3.1

     negative rho (up, down):  3.247E-01 9.102E-03

     total cpu time spent up to now is       39.0 secs

     total energy              =   -1933.22369996 Ry
     Harris-Foulkes estimate   =   -1946.24606097 Ry
     estimated scf accuracy    <      19.77048169 Ry

     total magnetization       =     1.00 Bohr mag/cell
     absolute magnetization    =     2.52 Bohr mag/cell

     iteration #  2     ecut=    40.00 Ry     beta= 0.70
     CG style diagonalization
     ethr =  5.06E-03,  avg # of iterations =  4.0

     negative rho (up, down):  3.600E-01 7.647E-03

     total cpu time spent up to now is       69.7 secs

     total energy              =   -1937.28736074 Ry
     Harris-Foulkes estimate   =   -1943.69432538 Ry
     estimated scf accuracy    <      12.53049643 Ry

     total magnetization       =     1.00 Bohr mag/cell
     absolute magnetization    =     2.64 Bohr mag/cell

     iteration #  3     ecut=    40.00 Ry     beta= 0.70
     CG style diagonalization
     ethr =  3.20E-03,  avg # of iterations =  3.8

     negative rho (up, down):  4.016E-01 9.678E-03

     total cpu time spent up to now is       98.6 secs

     total energy              =   -1939.61606627 Ry
     Harris-Foulkes estimate   =   -1940.46456159 Ry
     estimated scf accuracy    <       1.61419606 Ry

     total magnetization       =     1.00 Bohr mag/cell
     absolute magnetization    =     3.09 Bohr mag/cell

     iteration #  4     ecut=    40.00 Ry     beta= 0.70
     CG style diagonalization
     ethr =  4.13E-04,  avg # of iterations =  4.1

     negative rho (up, down):  4.514E-01 8.724E-03

     total cpu time spent up to now is      130.0 secs

     total energy              =   -1939.97225243 Ry
     Harris-Foulkes estimate   =   -1940.41779328 Ry
     estimated scf accuracy    <       1.37467499 Ry

     total magnetization       =     1.00 Bohr mag/cell
     absolute magnetization    =     2.71 Bohr mag/cell

     iteration #  5     ecut=    40.00 Ry     beta= 0.70
     CG style diagonalization
     ethr =  3.52E-04,  avg # of iterations =  3.2

     negative rho (up, down):  4.616E-01 7.820E-03

     total cpu time spent up to now is      152.5 secs

     total energy              =   -1940.15354892 Ry
     Harris-Foulkes estimate   =   -1940.19825529 Ry
     estimated scf accuracy    <       0.11686788 Ry

     total magnetization       =     1.00 Bohr mag/cell
     absolute magnetization    =     2.34 Bohr mag/cell

     iteration #  6     ecut=    40.00 Ry     beta= 0.70
     CG style diagonalization
     c_bands:  3 eigenvalues not converged
     c_bands:  2 eigenvalues not converged
     ethr =  2.99E-05,  avg # of iterations =  4.0

     negative rho (up, down):  4.683E-01 7.039E-03

     total cpu time spent up to now is      183.6 secs

     total energy              =   -1940.17105522 Ry
     Harris-Foulkes estimate   =   -1940.17774280 Ry
     estimated scf accuracy    <       0.02550877 Ry

     total magnetization       =     1.00 Bohr mag/cell
     absolute magnetization    =     2.34 Bohr mag/cell

     iteration #  7     ecut=    40.00 Ry     beta= 0.70
     CG style diagonalization
     c_bands:  4 eigenvalues not converged
     c_bands:  1 eigenvalues not converged
     ethr =  6.52E-06,  avg # of iterations =  6.1

     negative rho (up, down):  4.767E-01 7.167E-03

     total cpu time spent up to now is      229.7 secs

     total energy              =   -1940.17530208 Ry
     Harris-Foulkes estimate   =   -1940.17761271 Ry
     estimated scf accuracy    <       0.01040215 Ry

     total magnetization       =     1.00 Bohr mag/cell
     absolute magnetization    =     2.32 Bohr mag/cell

     iteration #  8     ecut=    40.00 Ry     beta= 0.70
     CG style diagonalization
     c_bands:  2 eigenvalues not converged
     c_bands:  3 eigenvalues not converged
     ethr =  2.66E-06,  avg # of iterations =  3.8

     negative rho (up, down):  4.786E-01 7.284E-03

     total cpu time spent up to now is      258.1 secs

     total energy              =   -1940.17742902 Ry
     Harris-Foulkes estimate   =   -1940.17805436 Ry
     estimated scf accuracy    <       0.00182272 Ry

     total magnetization       =     1.00 Bohr mag/cell
     absolute magnetization    =     2.35 Bohr mag/cell

     iteration #  9     ecut=    40.00 Ry     beta= 0.70
     CG style diagonalization
     c_bands:  3 eigenvalues not converged
     ethr =  4.66E-07,  avg # of iterations =  3.8

     negative rho (up, down):  4.794E-01 7.475E-03

     total cpu time spent up to now is      286.6 secs

     total energy              =   -1940.17796242 Ry
     Harris-Foulkes estimate   =   -1940.17796844 Ry
     estimated scf accuracy    <       0.00029532 Ry

     total magnetization       =     1.00 Bohr mag/cell
     absolute magnetization    =     2.36 Bohr mag/cell

     iteration # 10     ecut=    40.00 Ry     beta= 0.70
     CG style diagonalization
     c_bands:  3 eigenvalues not converged
     ethr =  7.55E-08,  avg # of iterations =  3.8

     negative rho (up, down):  4.796E-01 7.641E-03

     total cpu time spent up to now is      315.5 secs

     total energy              =   -1940.17807502 Ry
     Harris-Foulkes estimate   =   -1940.17807274 Ry
     estimated scf accuracy    <       0.00007006 Ry

     total magnetization       =     1.00 Bohr mag/cell
     absolute magnetization    =     2.37 Bohr mag/cell

     iteration # 11     ecut=    40.00 Ry     beta= 0.70
     CG style diagonalization
     c_bands:  1 eigenvalues not converged
     ethr =  1.79E-08,  avg # of iterations =  3.7

     negative rho (up, down):  4.795E-01 7.726E-03

     total cpu time spent up to now is      342.9 secs

     total energy              =   -1940.17810796 Ry
     Harris-Foulkes estimate   =   -1940.17809876 Ry
     estimated scf accuracy    <       0.00001438 Ry

     total magnetization       =     1.00 Bohr mag/cell
     absolute magnetization    =     2.38 Bohr mag/cell

     iteration # 12     ecut=    40.00 Ry     beta= 0.70
     CG style diagonalization
     ethr =  3.68E-09,  avg # of iterations =  3.9

     negative rho (up, down):  4.796E-01 7.770E-03

     total cpu time spent up to now is      372.2 secs

     total energy              =   -1940.17811609 Ry
     Harris-Foulkes estimate   =   -1940.17811621 Ry
     estimated scf accuracy    <       0.00000698 Ry

     total magnetization       =     1.00 Bohr mag/cell
     absolute magnetization    =     2.38 Bohr mag/cell

     iteration # 13     ecut=    40.00 Ry     beta= 0.70
     CG style diagonalization
     ethr =  1.79E-09,  avg # of iterations =  3.6

     negative rho (up, down):  4.795E-01 7.802E-03

     total cpu time spent up to now is      398.9 secs

     total energy              =   -1940.17811927 Ry
     Harris-Foulkes estimate   =   -1940.17811849 Ry
     estimated scf accuracy    <       0.00000113 Ry

     total magnetization       =     1.00 Bohr mag/cell
     absolute magnetization    =     2.39 Bohr mag/cell

     iteration # 14     ecut=    40.00 Ry     beta= 0.70
     CG style diagonalization
     ethr =  2.90E-10,  avg # of iterations =  4.0

     negative rho (up, down):  4.795E-01 7.822E-03

     total cpu time spent up to now is      429.5 secs

     total energy              =   -1940.17811996 Ry
     Harris-Foulkes estimate   =   -1940.17812020 Ry
     estimated scf accuracy    <       0.00000076 Ry

     total magnetization       =     1.00 Bohr mag/cell
     absolute magnetization    =     2.39 Bohr mag/cell

     iteration # 15     ecut=    40.00 Ry     beta= 0.70
     CG style diagonalization
     ethr =  1.94E-10,  avg # of iterations =  3.5

     negative rho (up, down):  4.795E-01 7.823E-03

     total cpu time spent up to now is      455.6 secs

     total energy              =   -1940.17812015 Ry
     Harris-Foulkes estimate   =   -1940.17812021 Ry
     estimated scf accuracy    <       0.00000017 Ry

     total magnetization       =     1.00 Bohr mag/cell
     absolute magnetization    =     2.39 Bohr mag/cell

     iteration # 16     ecut=    40.00 Ry     beta= 0.70
     CG style diagonalization
     ethr =  4.40E-11,  avg # of iterations =  3.6

     negative rho (up, down):  4.795E-01 7.824E-03

     total cpu time spent up to now is      482.1 secs

     total energy              =   -1940.17812020 Ry
     Harris-Foulkes estimate   =   -1940.17812023 Ry
     estimated scf accuracy    <       0.00000016 Ry

     total magnetization       =     1.00 Bohr mag/cell
     absolute magnetization    =     2.39 Bohr mag/cell

     iteration # 17     ecut=    40.00 Ry     beta= 0.70
     CG style diagonalization
     ethr =  4.04E-11,  avg # of iterations =  3.3

     negative rho (up, down):  4.795E-01 7.821E-03

     total cpu time spent up to now is      505.4 secs

     total energy              =   -1940.17812020 Ry
     Harris-Foulkes estimate   =   -1940.17812024 Ry
     estimated scf accuracy    <       0.00000002 Ry

     total magnetization       =     1.00 Bohr mag/cell
     absolute magnetization    =     2.39 Bohr mag/cell

     iteration # 18     ecut=    40.00 Ry     beta= 0.70
     CG style diagonalization
     ethr =  4.70E-12,  avg # of iterations =  3.6

     negative rho (up, down):  4.795E-01 7.822E-03

     total cpu time spent up to now is      532.2 secs

     total energy              =   -1940.17812017 Ry
     Harris-Foulkes estimate   =   -1940.17812021 Ry
     estimated scf accuracy    <          4.7E-09 Ry

     total magnetization       =     1.00 Bohr mag/cell
     absolute magnetization    =     2.39 Bohr mag/cell

     iteration # 19     ecut=    40.00 Ry     beta= 0.70
     CG style diagonalization
     ethr =  1.21E-12,  avg # of iterations =  3.7

     negative rho (up, down):  4.795E-01 7.822E-03

     total cpu time spent up to now is      559.7 secs

     total energy              =   -1940.17812017 Ry
     Harris-Foulkes estimate   =   -1940.17812017 Ry
     estimated scf accuracy    <          1.0E-09 Ry

     total magnetization       =     1.00 Bohr mag/cell
     absolute magnetization    =     2.39 Bohr mag/cell

     iteration # 20     ecut=    40.00 Ry     beta= 0.70
     CG style diagonalization
     ethr =  2.59E-13,  avg # of iterations =  3.9

     negative rho (up, down):  4.795E-01 7.822E-03

     total cpu time spent up to now is      588.8 secs

     total energy              =   -1940.17812017 Ry
     Harris-Foulkes estimate   =   -1940.17812017 Ry
     estimated scf accuracy    <          4.7E-10 Ry

     total magnetization       =     1.00 Bohr mag/cell
     absolute magnetization    =     2.39 Bohr mag/cell

     iteration # 21     ecut=    40.00 Ry     beta= 0.70
     CG style diagonalization
     ethr =  1.20E-13,  avg # of iterations =  3.7

     negative rho (up, down):  4.795E-01 7.821E-03
 
     Magnetic moment per site:
     atom:    1    charge:    0.8510    magn:   -0.0001    constr:    0.0000
     atom:    2    charge:    0.8460    magn:   -0.0005    constr:    0.0000
     atom:    3    charge:    0.8470    magn:   -0.0004    constr:    0.0000
     atom:    4    charge:    0.8491    magn:    0.0002    constr:    0.0000
     atom:    5    charge:    0.8520    magn:   -0.0010    constr:    0.0000
     atom:    6    charge:    0.8504    magn:    0.0002    constr:    0.0000
     atom:    7    charge:    0.8515    magn:   -0.0009    constr:    0.0000
     atom:    8    charge:    0.8504    magn:   -0.0008    constr:    0.0000
     atom:    9    charge:    0.8512    magn:   -0.0011    constr:    0.0000
     atom:   10    charge:    0.8431    magn:   -0.0037    constr:    0.0000
     atom:   11    charge:    0.8471    magn:   -0.0002    constr:    0.0000
     atom:   12    charge:    0.8526    magn:   -0.0015    constr:    0.0000
     atom:   13    charge:    0.8519    magn:    0.0002    constr:    0.0000
     atom:   14    charge:    0.8504    magn:    0.0002    constr:    0.0000
     atom:   15    charge:    0.8504    magn:   -0.0006    constr:    0.0000
     atom:   16    charge:    0.8559    magn:   -0.0061    constr:    0.0000
     atom:   17    charge:    0.8623    magn:   -0.0131    constr:    0.0000
     atom:   18    charge:    0.8503    magn:   -0.0104    constr:    0.0000
     atom:   19    charge:    0.8598    magn:   -0.0101    constr:    0.0000
     atom:   20    charge:    0.8526    magn:   -0.0015    constr:    0.0000
     atom:   21    charge:    0.8520    magn:   -0.0010    constr:    0.0000
     atom:   22    charge:    0.8469    magn:    0.0000    constr:    0.0000
     atom:   23    charge:    0.8436    magn:   -0.0005    constr:    0.0000
     atom:   24    charge:    0.8401    magn:   -0.0091    constr:    0.0000
     atom:   25    charge:    1.5845    magn:   -0.1485    constr:    0.0000
     atom:   26    charge:    0.8503    magn:   -0.0104    constr:    0.0000
     atom:   27    charge:    0.8471    magn:   -0.0002    constr:    0.0000
     atom:   28    charge:    0.8491    magn:    0.0002    constr:    0.0000
     atom:   29    charge:    0.8471    magn:   -0.0008    constr:    0.0000
     atom:   30    charge:    0.8473    magn:   -0.0000    constr:    0.0000
     atom:   31    charge:    0.8463    magn:   -0.0025    constr:    0.0000
     atom:   32    charge:    0.8401    magn:   -0.0091    constr:    0.0000
     atom:   33    charge:    0.8623    magn:   -0.0131    constr:    0.0000
     atom:   34    charge:    0.8431    magn:   -0.0036    constr:    0.0000
     atom:   35    charge:    0.8470    magn:   -0.0004    constr:    0.0000
     atom:   36    charge:    0.8460    magn:    0.0004    constr:    0.0000
     atom:   37    charge:    0.8455    magn:    0.0004    constr:    0.0000
     atom:   38    charge:    0.8473    magn:   -0.0000    constr:    0.0000
     atom:   39    charge:    0.8436    magn:   -0.0005    constr:    0.0000
     atom:   40    charge:    0.8559    magn:   -0.0061    constr:    0.0000
     atom:   41    charge:    0.8512    magn:   -0.0011    constr:    0.0000
     atom:   42    charge:    0.8460    magn:   -0.0005    constr:    0.0000
     atom:   43    charge:    0.8461    magn:   -0.0011    constr:    0.0000
     atom:   44    charge:    0.8460    magn:    0.0004    constr:    0.0000
     atom:   45    charge:    0.8471    magn:   -0.0008    constr:    0.0000
     atom:   46    charge:    0.8469    magn:    0.0000    constr:    0.0000
     atom:   47    charge:    0.8504    magn:   -0.0006    constr:    0.0000
     atom:   48    charge:    0.8504    magn:   -0.0008    constr:    0.0000
     atom:   49    charge:    0.8510    magn:   -0.0001    constr:    0.0000
     atom:   50    charge:    2.6487    magn:    0.0013    constr:    0.0000
     atom:   51    charge:    2.6494    magn:    0.0005    constr:    0.0000
     atom:   52    charge:    2.6367    magn:    0.0084    constr:    0.0000
     atom:   53    charge:    2.6480    magn:    0.0028    constr:    0.0000
     atom:   54    charge:    2.6498    magn:    0.0007    constr:    0.0000
     atom:   55    charge:    2.6401    magn:   -0.0001    constr:    0.0000
     atom:   56    charge:    2.6432    magn:   -0.0003    constr:    0.0000
     atom:   57    charge:    2.6454    magn:   -0.0018    constr:    0.0000
     atom:   58    charge:    2.6454    magn:    0.0060    constr:    0.0000
     atom:   59    charge:    2.6363    magn:    0.0305    constr:    0.0000
     atom:   60    charge:    2.6376    magn:    0.0147    constr:    0.0000
     atom:   61    charge:    2.6448    magn:    0.0100    constr:    0.0000
     atom:   62    charge:    2.6403    magn:    0.0026    constr:    0.0000
     atom:   63    charge:    2.6401    magn:   -0.0001    constr:    0.0000
     atom:   64    charge:    2.6481    magn:    0.0009    constr:    0.0000
     atom:   65    charge:    2.6473    magn:    0.0038    constr:    0.0000
     atom:   66    charge:    2.6475    magn:    0.0075    constr:    0.0000
     atom:   67    charge:    1.7451    magn:    0.1734    constr:    0.0000
     atom:   68    charge:    2.6358    magn:    0.0535    constr:    0.0000
     atom:   69    charge:    2.6448    magn:    0.0100    constr:    0.0000
     atom:   70    charge:    2.6498    magn:    0.0007    constr:    0.0000
     atom:   71    charge:    2.6484    magn:    0.0003    constr:    0.0000
     atom:   72    charge:    2.6433    magn:    0.0003    constr:    0.0000
     atom:   73    charge:    2.6377    magn:    0.0154    constr:    0.0000
     atom:   74    charge:    2.6066    magn:    0.1183    constr:    0.0000
     atom:   75    charge:    1.7451    magn:    0.1734    constr:    0.0000
     atom:   76    charge:    2.6376    magn:    0.0147    constr:    0.0000
     atom:   77    charge:    2.6480    magn:    0.0028    constr:    0.0000
     atom:   78    charge:    2.6462    magn:    0.0006    constr:    0.0000
     atom:   79    charge:    2.6425    magn:    0.0005    constr:    0.0000
     atom:   80    charge:    2.6344    magn:    0.0068    constr:    0.0000
     atom:   81    charge:    2.6377    magn:    0.0154    constr:    0.0000
     atom:   82    charge:    2.6475    magn:    0.0075    constr:    0.0000
     atom:   83    charge:    2.6363    magn:    0.0305    constr:    0.0000
     atom:   84    charge:    2.6367    magn:    0.0084    constr:    0.0000
     atom:   85    charge:    2.6453    magn:    0.0012    constr:    0.0000
     atom:   86    charge:    2.6440    magn:   -0.0001    constr:    0.0000
     atom:   87    charge:    2.6425    magn:    0.0005    constr:    0.0000
     atom:   88    charge:    2.6433    magn:    0.0003    constr:    0.0000
     atom:   89    charge:    2.6473    magn:    0.0038    constr:    0.0000
     atom:   90    charge:    2.6454    magn:    0.0060    constr:    0.0000
     atom:   91    charge:    2.6494    magn:    0.0005    constr:    0.0000
     atom:   92    charge:    2.6492    magn:    0.0003    constr:    0.0000
     atom:   93    charge:    2.6453    magn:    0.0012    constr:    0.0000
     atom:   94    charge:    2.6462    magn:    0.0006    constr:    0.0000
     atom:   95    charge:    2.6484    magn:    0.0003    constr:    0.0000
     atom:   96    charge:    2.6481    magn:    0.0009    constr:    0.0000
     atom:   97    charge:    2.6454    magn:   -0.0018    constr:    0.0000
     atom:   98    charge:    2.6487    magn:    0.0013    constr:    0.0000

     total cpu time spent up to now is      616.3 secs

     End of self-consistent calculation

 ------ SPIN UP ------------


          k = 0.0000 0.0000 0.0000 ( 77471 PWs)   bands (ev):

   -21.9123 -21.6554 -21.3927 -21.3844 -21.3570 -21.2993 -21.2832 -20.8957
   -20.6622 -20.6435 -20.6204 -20.5442 -20.5387 -20.4229 -20.2908 -20.2871
   -20.2689 -20.1289 -20.1135 -19.6013 -19.4263 -19.4053 -19.3905 -19.3880
   -19.3803 -19.3662 -19.3617 -19.3172 -19.3117 -19.1678 -19.1593 -19.0375
   -18.9683 -18.9654 -18.9366 -18.7753 -18.7657 -18.5551 -18.5414 -18.5236
   -18.5214 -18.4660 -18.4201 -18.3923 -18.3584 -18.3383 -18.3284 -16.8644
   -15.0386 -13.1830 -12.7775 -12.7768 -12.7426 -12.7130 -12.7074 -12.6422
   -12.5592 -12.5211 -12.5146 -12.4882 -12.4062 -12.1530 -12.0606 -12.0525
   -12.0217 -11.9926 -11.9397 -11.5710 -11.4293 -11.4121 -11.3923 -11.3871
   -11.3612 -11.3570 -11.3528 -11.3121 -11.3002 -11.1071 -11.0430 -10.8713
   -10.7174 -10.7017 -10.6745 -10.6499 -10.4992 -10.0812 -10.0303 -10.0100
    -9.9355  -9.8850  -9.8165  -9.4108  -9.3389  -9.3263  -9.3100  -9.2909
    -9.2735  -9.2188  -9.0714  -8.9641  -8.9629  -8.9128  -8.9083  -8.8958
    -8.8920  -8.8843  -8.8836  -8.8571  -8.8261  -8.8233  -8.8166  -8.8163
    -8.7938  -8.7932  -8.7903  -8.7459  -8.7338  -8.7012  -8.6571  -8.6426
    -8.4654  -8.4572  -8.2141  -8.1878  -8.1846  -8.1052  -8.0855  -7.9819
    -7.8749  -7.8327  -7.8185  -7.7931  -7.7214  -7.7210  -7.5803  -7.5196
    -7.5019  -7.4707  -7.4606  -7.4451  -7.4265  -7.3918  -7.3892  -7.3374
    -7.3365  -7.3354  -7.3220  -7.2820  -7.2330  -7.2302  -7.2008  -7.0376
    -7.0352  -6.9935  -6.9077  -6.8237  -6.6560  -6.5530  -6.2940  -6.2004
    -6.1871  -6.1464  -6.0985  -6.0771  -6.0743  -6.0638  -6.0589  -6.0554
    -6.0351  -6.0309  -6.0081  -5.9853  -5.8865  -5.8308  -5.8074  -5.7186
    -5.5418  -5.4498  -5.4376  -5.4340  -5.3517  -5.2739  -5.1587  -5.1117
    -4.8069  -4.8043  -4.7759  -4.7600  -4.6957  -4.6753  -4.5789  -4.5166
    -4.4943  -4.4938  -4.4593  -3.6470   0.1845   0.2781   0.6818   0.7014
     0.7137   0.7285   0.7377   0.7422   0.7889   0.8069   0.8082   0.8110
     0.8184   0.8398   0.8531   0.8616   0.8906   0.9155   0.9282   0.9466
     0.9983   1.1490   1.2137   1.2487   1.2646   1.2939   1.3037   1.3185
     1.3254   1.3312   1.3477   1.3630   1.4096   1.4350   1.4382   1.4422
     1.4517   1.4601   1.4840   1.8873   2.0992   2.1016   2.1054   2.1146
     2.1202   2.1411   2.1472   2.2106   2.2566

 ------ SPIN DOWN ----------


          k = 0.0000 0.0000 0.0000 ( 77471 PWs)   bands (ev):

   -21.8472 -21.6307 -21.3901 -21.3804 -21.3540 -21.2880 -21.2631 -20.8714
   -20.6541 -20.6323 -20.6142 -20.5377 -20.5294 -20.4163 -20.2833 -20.2779
   -20.2493 -20.1070 -20.1004 -19.5773 -19.4155 -19.3980 -19.3858 -19.3812
   -19.3714 -19.3609 -19.3477 -19.3012 -19.2969 -19.1531 -19.1479 -19.0271
   -18.9597 -18.9580 -18.9152 -18.7604 -18.7479 -18.5422 -18.5317 -18.5105
   -18.5064 -18.4578 -18.4000 -18.3848 -18.3477 -18.3307 -18.3097 -16.6309
   -14.6799 -13.1761 -12.7763 -12.7744 -12.7416 -12.7120 -12.7072 -12.6426
   -12.5576 -12.5201 -12.5119 -12.4734 -12.4052 -12.1485 -12.0601 -12.0485
   -12.0148 -11.9825 -11.9330 -11.5642 -11.4219 -11.4109 -11.3905 -11.3839
   -11.3601 -11.3550 -11.3492 -11.3035 -11.2898 -11.0590 -11.0266 -10.8754
   -10.7166 -10.7017 -10.6695 -10.6441 -10.4957 -10.0750 -10.0275 -10.0016
    -9.9240  -9.8623  -9.8013  -9.4065  -9.3193  -9.3136  -9.3054  -9.2851
    -9.2718  -9.2142  -9.0661  -8.9508  -8.9092  -8.9059  -8.9046  -8.8916
    -8.8911  -8.8822  -8.8791  -8.8546  -8.8238  -8.8170  -8.8153  -8.8094
    -8.7924  -8.7882  -8.7863  -8.7255  -8.7140  -8.6431  -8.6355  -8.6312
    -8.4558  -8.4214  -8.2121  -8.1847  -8.1823  -8.0860  -8.0759  -7.9263
    -7.8565  -7.8211  -7.8012  -7.7856  -7.7030  -7.6867  -7.5730  -7.5099
    -7.4996  -7.4693  -7.4441  -7.4379  -7.4261  -7.3891  -7.3865  -7.3320
    -7.3273  -7.3205  -7.2915  -7.2688  -7.2170  -7.1678  -7.1641  -7.0331
    -7.0169  -6.9915  -6.8818  -6.7953  -6.6294  -6.5244  -6.2481  -6.1958
    -6.1760  -6.1434  -6.0813  -6.0657  -6.0556  -6.0500  -6.0448  -6.0418
    -6.0246  -6.0118  -5.9678  -5.9638  -5.8076  -5.8044  -5.7675  -5.6886
    -5.5181  -5.4379  -5.4255  -5.3994  -5.2547  -5.2021  -5.0810  -5.0246
    -4.7760  -4.7688  -4.7480  -4.7339  -4.6537  -4.6283  -4.5530  -4.4964
    -4.4822  -4.4720  -4.0627  -2.8338  -0.0010   0.1771   0.6706   0.6781
     0.7066   0.7249   0.7323   0.7390   0.7842   0.7929   0.8054   0.8091
     0.8156   0.8338   0.8433   0.8513   0.8783   0.9020   0.9165   0.9500
     0.9662   1.1333   1.2258   1.2298   1.2536   1.2717   1.3147   1.3227
     1.3284   1.3337   1.3420   1.3634   1.3865   1.4350   1.4386   1.4421
     1.4512   1.4593   1.4812   1.8830   2.0906   2.0954   2.0962   2.1096
     2.1097   2.2689   2.3038   2.3051   2.3908

     highest occupied, lowest unoccupied level (ev):    -3.6470   -4.0627

!    total energy              =   -1940.17812017 Ry
     Harris-Foulkes estimate   =   -1940.17812017 Ry
     estimated scf accuracy    <          4.6E-11 Ry

     total all-electron energy =     -7770.002597 Ry

     The total energy is the sum of the following terms:

     one-electron contribution =  -10643.84650721 Ry
     hartree contribution      =    5407.51330290 Ry
     xc contribution           =    -430.67857299 Ry
     ewald contribution        =    4370.28097520 Ry
     DFT-D3 Dispersion         =      -0.27012905 Ry
     one-center paw contrib.   =    -643.17718904 Ry

     total magnetization       =     1.00 Bohr mag/cell
     absolute magnetization    =     2.39 Bohr mag/cell

     convergence has been achieved in  21 iterations

     negative rho (up, down):  4.795E-01 7.821E-03

     Forces acting on atoms (cartesian axes, Ry/au):

     atom    1 type  1   force =     0.00001294   -0.00000935    0.00000000
     atom    2 type  1   force =    -0.00000262   -0.00000978    0.00000000
     atom    3 type  1   force =    -0.00001107   -0.00000126    0.00000000
     atom    4 type  1   force =    -0.00000311   -0.00000088    0.00000000
     atom    5 type  1   force =     0.00000973   -0.00000477    0.00000000
     atom    6 type  1   force =     0.00001200    0.00000347    0.00000000
     atom    7 type  1   force =     0.00000470   -0.00000057    0.00000000
     atom    8 type  1   force =    -0.00000933   -0.00000965    0.00000000
     atom    9 type  1   force =    -0.00000606   -0.00000978    0.00000000
     atom   10 type  1   force =    -0.00001407   -0.00000982    0.00000000
     atom   11 type  1   force =    -0.00001212   -0.00001073    0.00000000
     atom   12 type  1   force =     0.00000493   -0.00001018    0.00000000
     atom   13 type  1   force =     0.00000723   -0.00001352    0.00000000
     atom   14 type  1   force =    -0.00000515   -0.00001677    0.00000000
     atom   15 type  1   force =    -0.00001266    0.00000021    0.00000000
     atom   16 type  1   force =    -0.00001409    0.00000242    0.00000000
     atom   17 type  1   force =    -0.00001139   -0.00000291    0.00000000
     atom   18 type  1   force =    -0.00000933   -0.00000013    0.00000000
     atom   19 type  1   force =    -0.00000052   -0.00000142    0.00000000
     atom   20 type  1   force =     0.00001181   -0.00001278    0.00000000
     atom   21 type  1   force =     0.00000639   -0.00001429    0.00000000
     atom   22 type  1   force =     0.00000634   -0.00000478    0.00000000
     atom   23 type  1   force =     0.00000234    0.00001079    0.00000000
     atom   24 type  1   force =    -0.00000919    0.00001033    0.00000000
     atom   25 type  4   force =    -0.00000513    0.00000323    0.00000000
     atom   26 type  1   force =    -0.00000506    0.00000882    0.00000000
     atom   27 type  1   force =     0.00000489    0.00000886    0.00000000
     atom   28 type  1   force =     0.00000617   -0.00000271    0.00000000
     atom   29 type  1   force =     0.00000241    0.00000770    0.00000000
     atom   30 type  1   force =     0.00001264    0.00000167    0.00000000
     atom   31 type  1   force =    -0.00000163    0.00000321    0.00000000
     atom   32 type  1   force =    -0.00001031    0.00000133    0.00000000
     atom   33 type  1   force =    -0.00000371    0.00000702    0.00000000
     atom   34 type  1   force =    -0.00000214    0.00001179    0.00000000
     atom   35 type  1   force =    -0.00000388    0.00000971    0.00000000
     atom   36 type  1   force =    -0.00000917    0.00001246    0.00000000
     atom   37 type  1   force =     0.00000188    0.00000384    0.00000000
     atom   38 type  1   force =     0.00000890   -0.00000266    0.00000000
     atom   39 type  1   force =    -0.00000144   -0.00000567    0.00000000
     atom   40 type  1   force =    -0.00000131    0.00000447    0.00000000
     atom   41 type  1   force =     0.00000604    0.00000239    0.00000000
     atom   42 type  1   force =     0.00000467    0.00000918    0.00000000
     atom   43 type  1   force =     0.00000807    0.00000062    0.00000000
     atom   44 type  1   force =    -0.00001078    0.00000606    0.00000000
     atom   45 type  1   force =    -0.00000417    0.00000301    0.00000000
     atom   46 type  1   force =     0.00000876    0.00000302    0.00000000
     atom   47 type  1   force =     0.00000209    0.00000603    0.00000000
     atom   48 type  1   force =     0.00001262    0.00000676    0.00000000
     atom   49 type  1   force =     0.00002125    0.00000026    0.00000000
     atom   50 type  2   force =     0.00001811   -0.00000783    0.00000000
     atom   51 type  2   force =     0.00000503   -0.00000477    0.00000000
     atom   52 type  2   force =    -0.00001010   -0.00000608    0.00000000
     atom   53 type  2   force =    -0.00000371   -0.00000633    0.00000000
     atom   54 type  2   force =     0.00000679    0.00000305    0.00000000
     atom   55 type  2   force =     0.00000220    0.00000724    0.00000000
     atom   56 type  2   force =     0.00000745    0.00000054    0.00000000
     atom   57 type  2   force =     0.00001032   -0.00000767    0.00000000
     atom   58 type  2   force =     0.00000698   -0.00001127    0.00000000
     atom   59 type  2   force =    -0.00000302   -0.00000266    0.00000000
     atom   60 type  2   force =    -0.00000008   -0.00000082    0.00000000
     atom   61 type  2   force =     0.00000764   -0.00000347    0.00000000
     atom   62 type  2   force =     0.00000394    0.00000566    0.00000000
     atom   63 type  2   force =     0.00000259    0.00000562    0.00000000
     atom   64 type  2   force =    -0.00000686   -0.00000427    0.00000000
     atom   65 type  2   force =    -0.00000166   -0.00000993    0.00000000
     atom   66 type  2   force =    -0.00001063   -0.00000657    0.00000000
     atom   67 type  3   force =    -0.00000203   -0.00000023    0.00000000
     atom   68 type  2   force =     0.00000299   -0.00000074    0.00000000
     atom   69 type  2   force =     0.00000479    0.00000338    0.00000000
     atom   70 type  2   force =    -0.00000137    0.00000258    0.00000000
     atom   71 type  2   force =    -0.00000289   -0.00000023    0.00000000
     atom   72 type  2   force =    -0.00000546   -0.00001306    0.00000000
     atom   73 type  2   force =    -0.00001194   -0.00000041    0.00000000
     atom   74 type  2   force =    -0.00001095    0.00000621    0.00000000
     atom   75 type  5   force =    -0.00000058    0.00000181    0.00000000
     atom   76 type  2   force =     0.00000081    0.00000442    0.00000000
     atom   77 type  2   force =    -0.00000121    0.00001095    0.00000000
     atom   78 type  2   force =    -0.00000270    0.00000754    0.00000000
     atom   79 type  2   force =     0.00000089   -0.00000024    0.00000000
     atom   80 type  2   force =     0.00000032   -0.00000429    0.00000000
     atom   81 type  2   force =    -0.00001009    0.00000854    0.00000000
     atom   82 type  2   force =    -0.00000288    0.00001469    0.00000000
     atom   83 type  2   force =     0.00000287    0.00001078    0.00000000
     atom   84 type  2   force =     0.00000242    0.00001364    0.00000000
     atom   85 type  2   force =    -0.00000323    0.00000387    0.00000000
     atom   86 type  2   force =    -0.00000885    0.00000186    0.00000000
     atom   87 type  2   force =    -0.00000157   -0.00000817    0.00000000
     atom   88 type  2   force =     0.00000348    0.00000389    0.00000000
     atom   89 type  2   force =    -0.00000216    0.00000798    0.00000000
     atom   90 type  2   force =     0.00000681    0.00000654    0.00000000
     atom   91 type  2   force =     0.00000394   -0.00000062    0.00000000
     atom   92 type  2   force =     0.00000997   -0.00001168    0.00000000
     atom   93 type  2   force =    -0.00000994   -0.00000386    0.00000000
     atom   94 type  2   force =    -0.00000927   -0.00000610    0.00000000
     atom   95 type  2   force =     0.00000012   -0.00000601    0.00000000
     atom   96 type  2   force =    -0.00000244    0.00000919    0.00000000
     atom   97 type  2   force =     0.00000617    0.00000357    0.00000000
     atom   98 type  2   force =     0.00000964   -0.00001045    0.00000000

     Total force =     0.000104     Total SCF correction =     0.000012
     SCF correction compared to forces is large: reduce conv_thr to get better values


     Computing stress (Cartesian axis) and pressure


     negative rho (up, down):  4.795E-01 7.821E-03
          total   stress  (Ry/bohr**3)                   (kbar)     P=   -0.17
  -0.00000003  -0.00000001   0.00000000         -0.00     -0.00      0.00
  -0.00000001  -0.00000004   0.00000000         -0.00     -0.01      0.00
   0.00000000   0.00000000  -0.00000334          0.00      0.00     -0.49


     BFGS Geometry Optimization

     number of scf cycles    =   1
     number of bfgs steps    =   0

     enthalpy new            =   -1940.1781201724 Ry

     new trust radius        =       0.0000398346 bohr
     new conv_thr            =            1.0E-10 Ry

     new unit-cell volume =  36235.00301 a.u.^3 (  5369.47340 Ang^3 )
     density =      0.36307 g/cm^3

CELL_PARAMETERS (alat= 33.23461096)
   1.001023656   0.000197582   0.000000000
  -0.500340717   0.867010716   0.000000000
   0.000000000   0.000000000   1.137203616

ATOMIC_POSITIONS (crystal)
B        0.047259477   0.094667850   0.500000000
B        0.047318883   0.237770522   0.500000000
B        0.047282573   0.380904128   0.500000000
B        0.047200866   0.523754751   0.500000000
B        0.047666169   0.666629444   0.500000000
B        0.047947989   0.809616940   0.500000000
B        0.047715446   0.952284602   0.500000000
B        0.189875508   0.094272884   0.500000000
B        0.189157298   0.236436445   0.500000000
B        0.190047003   0.380744147   0.500000000
B        0.189484287   0.523730014   0.500000000
B        0.189674684   0.666775975   0.500000000
B        0.190386471   0.809613317   0.500000000
B        0.190382920   0.952051943   0.500000000
B        0.333174653   0.094255965   0.500000000
B        0.332542750   0.235897819   0.500000000
B        0.331310746   0.377102044   0.500000000
B        0.332351899   0.525249701   0.500000000
B        0.331934812   0.668065087   0.500000000
B        0.333223906   0.810325095   0.500000000
B        0.333370465   0.952333744   0.500000000
B        0.476244556   0.095117539   0.500000000
B        0.475996560   0.237637766   0.500000000
B        0.474729112   0.379473023   0.500000000
C2       0.477581905   0.522418079   0.500000000
B        0.474750235   0.667648044   0.500000000
B        0.476269968   0.810515636   0.500000000
B        0.476245315   0.952799133   0.500000000
B        0.618974619   0.095293051   0.500000000
B        0.618983415   0.238015198   0.500000000
B        0.619037106   0.380962925   0.500000000
B        0.620526941   0.525270834   0.500000000
B        0.622897951   0.668689175   0.500000000
B        0.619255820   0.809952925   0.500000000
B        0.619095936   0.952717476   0.500000000
B        0.761852650   0.095320193   0.500000000
B        0.761817670   0.238182409   0.500000000
B        0.761984873   0.381016696   0.500000000
B        0.762362301   0.524003469   0.500000000
B        0.764102231   0.667457134   0.500000000
B        0.763563508   0.810842543   0.500000000
B        0.762229533   0.952681170   0.500000000
B        0.904814484   0.095185659   0.500000000
B        0.904679903   0.238147428   0.500000000
B        0.904707060   0.381025538   0.500000000
B        0.904882576   0.523755559   0.500000000
B        0.905744124   0.666825287   0.500000000
B        0.905727179   0.810124388   0.500000000
B        0.905332272   0.952740584   0.500000000
N        0.094940892   0.047171598   0.500000000
N        0.094393183   0.189591890   0.500000000
N        0.094867790   0.333132214   0.500000000
N        0.094526072   0.476040221   0.500000000
N        0.094731661   0.618903398   0.500000000
N        0.095297739   0.761874655   0.500000000
N        0.095328012   0.904672145   0.500000000
N        0.237938700   0.047043640   0.500000000
N        0.237223996   0.189123890   0.500000000
N        0.236496448   0.331412614   0.500000000
N        0.237075972   0.476254548   0.500000000
N        0.236786097   0.619232534   0.500000000
N        0.237877327   0.762122883   0.500000000
N        0.238125604   0.904702498   0.500000000
N        0.381109645   0.047324627   0.500000000
N        0.380896760   0.189224206   0.500000000
N        0.379842600   0.330147829   0.500000000
C1       0.382796251   0.475904681   0.500000000
N        0.378909988   0.621089972   0.500000000
N        0.380767495   0.763214032   0.500000000
N        0.381096667   0.905268567   0.500000000
N        0.523923971   0.047848938   0.500000000
N        0.523865458   0.190477731   0.500000000
N        0.523598758   0.333503939   0.500000000
N        0.523087595   0.476912353   0.500000000
C3       0.524095325   0.617203711   0.500000000
N        0.523745501   0.762924086   0.500000000
N        0.523959777   0.905474104   0.500000000
N        0.666686608   0.047861044   0.500000000
N        0.666602668   0.190575964   0.500000000
N        0.666522797   0.333477015   0.500000000
N        0.666495911   0.476401189   0.500000000
N        0.669852125   0.620157409   0.500000000
N        0.668587504   0.763503651   0.500000000
N        0.666867899   0.905132289   0.500000000
N        0.809595799   0.047793290   0.500000000
N        0.809429641   0.190570246   0.500000000
N        0.809423897   0.333397159   0.500000000
N        0.809522095   0.476134401   0.500000000
N        0.810775629   0.619103274   0.500000000
N        0.810876057   0.762776105   0.500000000
N        0.810408069   0.905606795   0.500000000
N        0.952392751   0.047607027   0.500000000
N        0.952206599   0.190404133   0.500000000
N        0.952138935   0.333313325   0.500000000
N        0.952151094   0.476075898   0.500000000
N        0.952675375   0.618890413   0.500000000
N        0.952956344   0.762061484   0.500000000
N        0.952828306   0.905059117   0.500000000



     Writing output data file C2Cn.save/
     NEW-OLD atomic charge density approx. for the potential
     NEW k-points:
   0.0000000   0.0000000   0.0000000   1.0000000
   0.0000000   0.0000000   0.0000000   1.0000000

     Check: negative core charge=   -0.000006

     negative rho (up, down):  4.795E-01 3.955E-03
     extrapolated charge  390.99930, renormalised to  391.00000

     total cpu time spent up to now is      637.1 secs

     Self-consistent Calculation

     iteration #  1     ecut=    40.00 Ry     beta= 0.70
     CG style diagonalization
     ethr =  1.00E-06,  avg # of iterations =  2.0

     Threshold (ethr) on eigenvalues was too large:
     Diagonalizing with lowered threshold

     CG style diagonalization
     ethr =  3.19E-12,  avg # of iterations = 12.8

     negative rho (up, down):  4.795E-01 7.171E-03

     total cpu time spent up to now is      769.6 secs

     total energy              =   -1940.17812137 Ry
     Harris-Foulkes estimate   =   -1940.19665256 Ry
     estimated scf accuracy    <       0.00000002 Ry

     total magnetization       =     1.00 Bohr mag/cell
     absolute magnetization    =     2.39 Bohr mag/cell

     iteration #  2     ecut=    40.00 Ry     beta= 0.70
     CG style diagonalization
     ethr =  4.59E-12,  avg # of iterations =  4.2

     negative rho (up, down):  4.795E-01 7.372E-03

     total cpu time spent up to now is      801.8 secs

     total energy              =   -1940.17812117 Ry
     Harris-Foulkes estimate   =   -1940.17812139 Ry
     estimated scf accuracy    <       0.00000002 Ry

     total magnetization       =     1.00 Bohr mag/cell
     absolute magnetization    =     2.39 Bohr mag/cell

     iteration #  3     ecut=    40.00 Ry     beta= 0.70
     CG style diagonalization
     ethr =  4.59E-12,  avg # of iterations =  3.5

     negative rho (up, down):  4.795E-01 7.643E-03

     total cpu time spent up to now is      827.3 secs

     total energy              =   -1940.17812058 Ry
     Harris-Foulkes estimate   =   -1940.17812118 Ry
     estimated scf accuracy    <          1.8E-09 Ry

     total magnetization       =     1.00 Bohr mag/cell
     absolute magnetization    =     2.39 Bohr mag/cell

     iteration #  4     ecut=    40.00 Ry     beta= 0.70
     CG style diagonalization
     ethr =  4.72E-13,  avg # of iterations =  4.0

     negative rho (up, down):  4.795E-01 7.775E-03

     total cpu time spent up to now is      857.7 secs

     total energy              =   -1940.17812030 Ry
     Harris-Foulkes estimate   =   -1940.17812058 Ry
     estimated scf accuracy    <          3.1E-09 Ry

     total magnetization       =     1.00 Bohr mag/cell
     absolute magnetization    =     2.39 Bohr mag/cell

     iteration #  5     ecut=    40.00 Ry     beta= 0.70
     CG style diagonalization
     ethr =  4.72E-13,  avg # of iterations =  3.4

     negative rho (up, down):  4.795E-01 7.784E-03

     total cpu time spent up to now is      882.4 secs

     total energy              =   -1940.17812026 Ry
     Harris-Foulkes estimate   =   -1940.17812030 Ry
     estimated scf accuracy    <          2.6E-10 Ry

     total magnetization       =     1.00 Bohr mag/cell
     absolute magnetization    =     2.39 Bohr mag/cell

     iteration #  6     ecut=    40.00 Ry     beta= 0.70
     CG style diagonalization
     ethr =  1.00E-13,  avg # of iterations =  3.4

     negative rho (up, down):  4.795E-01 7.822E-03

     total cpu time spent up to now is      907.6 secs

     total energy              =   -1940.17812019 Ry
     Harris-Foulkes estimate   =   -1940.17812026 Ry
     estimated scf accuracy    <          1.0E-10 Ry

     total magnetization       =     1.00 Bohr mag/cell
     absolute magnetization    =     2.39 Bohr mag/cell

     iteration #  7     ecut=    40.00 Ry     beta= 0.70
     CG style diagonalization
     ethr =  1.00E-13,  avg # of iterations =  3.1

     negative rho (up, down):  4.795E-01 7.823E-03
 
     Magnetic moment per site:
     atom:    1    charge:    0.8510    magn:   -0.0001    constr:    0.0000
     atom:    2    charge:    0.8460    magn:   -0.0005    constr:    0.0000
     atom:    3    charge:    0.8470    magn:   -0.0004    constr:    0.0000
     atom:    4    charge:    0.8491    magn:    0.0002    constr:    0.0000
     atom:    5    charge:    0.8520    magn:   -0.0010    constr:    0.0000
     atom:    6    charge:    0.8504    magn:    0.0002    constr:    0.0000
     atom:    7    charge:    0.8515    magn:   -0.0009    constr:    0.0000
     atom:    8    charge:    0.8504    magn:   -0.0008    constr:    0.0000
     atom:    9    charge:    0.8512    magn:   -0.0011    constr:    0.0000
     atom:   10    charge:    0.8431    magn:   -0.0036    constr:    0.0000
     atom:   11    charge:    0.8471    magn:   -0.0002    constr:    0.0000
     atom:   12    charge:    0.8526    magn:   -0.0015    constr:    0.0000
     atom:   13    charge:    0.8519    magn:    0.0002    constr:    0.0000
     atom:   14    charge:    0.8504    magn:    0.0002    constr:    0.0000
     atom:   15    charge:    0.8504    magn:   -0.0006    constr:    0.0000
     atom:   16    charge:    0.8559    magn:   -0.0061    constr:    0.0000
     atom:   17    charge:    0.8623    magn:   -0.0131    constr:    0.0000
     atom:   18    charge:    0.8503    magn:   -0.0104    constr:    0.0000
     atom:   19    charge:    0.8598    magn:   -0.0101    constr:    0.0000
     atom:   20    charge:    0.8526    magn:   -0.0015    constr:    0.0000
     atom:   21    charge:    0.8520    magn:   -0.0010    constr:    0.0000
     atom:   22    charge:    0.8469    magn:    0.0000    constr:    0.0000
     atom:   23    charge:    0.8436    magn:   -0.0005    constr:    0.0000
     atom:   24    charge:    0.8401    magn:   -0.0091    constr:    0.0000
     atom:   25    charge:    1.5845    magn:   -0.1485    constr:    0.0000
     atom:   26    charge:    0.8503    magn:   -0.0104    constr:    0.0000
     atom:   27    charge:    0.8471    magn:   -0.0002    constr:    0.0000
     atom:   28    charge:    0.8491    magn:    0.0002    constr:    0.0000
     atom:   29    charge:    0.8471    magn:   -0.0008    constr:    0.0000
     atom:   30    charge:    0.8473    magn:   -0.0000    constr:    0.0000
     atom:   31    charge:    0.8463    magn:   -0.0025    constr:    0.0000
     atom:   32    charge:    0.8401    magn:   -0.0091    constr:    0.0000
     atom:   33    charge:    0.8623    magn:   -0.0131    constr:    0.0000
     atom:   34    charge:    0.8431    magn:   -0.0036    constr:    0.0000
     atom:   35    charge:    0.8470    magn:   -0.0004    constr:    0.0000
     atom:   36    charge:    0.8460    magn:    0.0004    constr:    0.0000
     atom:   37    charge:    0.8455    magn:    0.0004    constr:    0.0000
     atom:   38    charge:    0.8473    magn:   -0.0000    constr:    0.0000
     atom:   39    charge:    0.8436    magn:   -0.0005    constr:    0.0000
     atom:   40    charge:    0.8559    magn:   -0.0061    constr:    0.0000
     atom:   41    charge:    0.8512    magn:   -0.0011    constr:    0.0000
     atom:   42    charge:    0.8460    magn:   -0.0005    constr:    0.0000
     atom:   43    charge:    0.8461    magn:   -0.0011    constr:    0.0000
     atom:   44    charge:    0.8460    magn:    0.0004    constr:    0.0000
     atom:   45    charge:    0.8471    magn:   -0.0008    constr:    0.0000
     atom:   46    charge:    0.8469    magn:    0.0000    constr:    0.0000
     atom:   47    charge:    0.8504    magn:   -0.0006    constr:    0.0000
     atom:   48    charge:    0.8504    magn:   -0.0008    constr:    0.0000
     atom:   49    charge:    0.8510    magn:   -0.0001    constr:    0.0000
     atom:   50    charge:    2.6487    magn:    0.0013    constr:    0.0000
     atom:   51    charge:    2.6494    magn:    0.0005    constr:    0.0000
     atom:   52    charge:    2.6367    magn:    0.0084    constr:    0.0000
     atom:   53    charge:    2.6480    magn:    0.0028    constr:    0.0000
     atom:   54    charge:    2.6498    magn:    0.0007    constr:    0.0000
     atom:   55    charge:    2.6401    magn:   -0.0001    constr:    0.0000
     atom:   56    charge:    2.6432    magn:   -0.0003    constr:    0.0000
     atom:   57    charge:    2.6454    magn:   -0.0018    constr:    0.0000
     atom:   58    charge:    2.6454    magn:    0.0060    constr:    0.0000
     atom:   59    charge:    2.6363    magn:    0.0305    constr:    0.0000
     atom:   60    charge:    2.6376    magn:    0.0147    constr:    0.0000
     atom:   61    charge:    2.6448    magn:    0.0100    constr:    0.0000
     atom:   62    charge:    2.6403    magn:    0.0026    constr:    0.0000
     atom:   63    charge:    2.6401    magn:   -0.0001    constr:    0.0000
     atom:   64    charge:    2.6481    magn:    0.0009    constr:    0.0000
     atom:   65    charge:    2.6473    magn:    0.0038    constr:    0.0000
     atom:   66    charge:    2.6475    magn:    0.0075    constr:    0.0000
     atom:   67    charge:    1.7451    magn:    0.1734    constr:    0.0000
     atom:   68    charge:    2.6358    magn:    0.0535    constr:    0.0000
     atom:   69    charge:    2.6448    magn:    0.0100    constr:    0.0000
     atom:   70    charge:    2.6498    magn:    0.0007    constr:    0.0000
     atom:   71    charge:    2.6484    magn:    0.0003    constr:    0.0000
     atom:   72    charge:    2.6433    magn:    0.0003    constr:    0.0000
     atom:   73    charge:    2.6377    magn:    0.0154    constr:    0.0000
     atom:   74    charge:    2.6066    magn:    0.1183    constr:    0.0000
     atom:   75    charge:    1.7451    magn:    0.1734    constr:    0.0000
     atom:   76    charge:    2.6376    magn:    0.0147    constr:    0.0000
     atom:   77    charge:    2.6480    magn:    0.0028    constr:    0.0000
     atom:   78    charge:    2.6462    magn:    0.0006    constr:    0.0000
     atom:   79    charge:    2.6425    magn:    0.0005    constr:    0.0000
     atom:   80    charge:    2.6344    magn:    0.0068    constr:    0.0000
     atom:   81    charge:    2.6377    magn:    0.0154    constr:    0.0000
     atom:   82    charge:    2.6475    magn:    0.0075    constr:    0.0000
     atom:   83    charge:    2.6363    magn:    0.0305    constr:    0.0000
     atom:   84    charge:    2.6367    magn:    0.0084    constr:    0.0000
     atom:   85    charge:    2.6453    magn:    0.0012    constr:    0.0000
     atom:   86    charge:    2.6440    magn:   -0.0001    constr:    0.0000
     atom:   87    charge:    2.6425    magn:    0.0005    constr:    0.0000
     atom:   88    charge:    2.6433    magn:    0.0003    constr:    0.0000
     atom:   89    charge:    2.6473    magn:    0.0038    constr:    0.0000
     atom:   90    charge:    2.6454    magn:    0.0060    constr:    0.0000
     atom:   91    charge:    2.6493    magn:    0.0005    constr:    0.0000
     atom:   92    charge:    2.6492    magn:    0.0003    constr:    0.0000
     atom:   93    charge:    2.6453    magn:    0.0012    constr:    0.0000
     atom:   94    charge:    2.6462    magn:    0.0006    constr:    0.0000
     atom:   95    charge:    2.6484    magn:    0.0003    constr:    0.0000
     atom:   96    charge:    2.6481    magn:    0.0009    constr:    0.0000
     atom:   97    charge:    2.6454    magn:   -0.0018    constr:    0.0000
     atom:   98    charge:    2.6487    magn:    0.0013    constr:    0.0000

     total cpu time spent up to now is      929.8 secs

     End of self-consistent calculation

 ------ SPIN UP ------------


          k = 0.0000 0.0000 0.0000 ( 77471 PWs)   bands (ev):

   -21.9123 -21.6554 -21.3927 -21.3844 -21.3570 -21.2993 -21.2832 -20.8957
   -20.6622 -20.6435 -20.6204 -20.5442 -20.5387 -20.4229 -20.2908 -20.2871
   -20.2689 -20.1289 -20.1135 -19.6013 -19.4263 -19.4052 -19.3905 -19.3880
   -19.3803 -19.3662 -19.3617 -19.3172 -19.3117 -19.1678 -19.1593 -19.0375
   -18.9683 -18.9654 -18.9366 -18.7753 -18.7657 -18.5551 -18.5414 -18.5236
   -18.5214 -18.4660 -18.4201 -18.3923 -18.3584 -18.3383 -18.3284 -16.8644
   -15.0386 -13.1830 -12.7775 -12.7768 -12.7425 -12.7130 -12.7074 -12.6422
   -12.5592 -12.5211 -12.5146 -12.4882 -12.4062 -12.1530 -12.0606 -12.0525
   -12.0217 -11.9926 -11.9397 -11.5710 -11.4293 -11.4121 -11.3922 -11.3871
   -11.3612 -11.3570 -11.3528 -11.3121 -11.3002 -11.1071 -11.0430 -10.8713
   -10.7174 -10.7017 -10.6745 -10.6499 -10.4992 -10.0812 -10.0303 -10.0100
    -9.9355  -9.8850  -9.8165  -9.4108  -9.3389  -9.3263  -9.3100  -9.2909
    -9.2735  -9.2188  -9.0714  -8.9641  -8.9629  -8.9128  -8.9082  -8.8958
    -8.8920  -8.8843  -8.8836  -8.8571  -8.8261  -8.8233  -8.8165  -8.8163
    -8.7938  -8.7932  -8.7903  -8.7460  -8.7338  -8.7012  -8.6571  -8.6426
    -8.4653  -8.4571  -8.2140  -8.1878  -8.1846  -8.1052  -8.0855  -7.9819
    -7.8749  -7.8327  -7.8185  -7.7931  -7.7215  -7.7210  -7.5803  -7.5196
    -7.5019  -7.4707  -7.4606  -7.4451  -7.4265  -7.3918  -7.3892  -7.3374
    -7.3365  -7.3354  -7.3220  -7.2820  -7.2330  -7.2302  -7.2008  -7.0376
    -7.0352  -6.9935  -6.9077  -6.8237  -6.6560  -6.5530  -6.2940  -6.2004
    -6.1871  -6.1464  -6.0985  -6.0771  -6.0743  -6.0638  -6.0589  -6.0554
    -6.0351  -6.0309  -6.0081  -5.9853  -5.8865  -5.8308  -5.8074  -5.7186
    -5.5418  -5.4498  -5.4375  -5.4340  -5.3517  -5.2739  -5.1587  -5.1117
    -4.8069  -4.8043  -4.7759  -4.7600  -4.6957  -4.6753  -4.5789  -4.5166
    -4.4943  -4.4937  -4.4593  -3.6470   0.1845   0.2781   0.6818   0.7014
     0.7137   0.7285   0.7377   0.7423   0.7889   0.8069   0.8082   0.8110
     0.8184   0.8398   0.8531   0.8616   0.8906   0.9155   0.9282   0.9467
     0.9983   1.1490   1.2137   1.2487   1.2646   1.2939   1.3037   1.3185
     1.3254   1.3312   1.3476   1.3630   1.4096   1.4350   1.4382   1.4422
     1.4517   1.4601   1.4840   1.8873   2.0991   2.1016   2.1054   2.1146
     2.1201   2.1409   2.1471   2.2105   2.2566

 ------ SPIN DOWN ----------


          k = 0.0000 0.0000 0.0000 ( 77471 PWs)   bands (ev):

   -21.8472 -21.6307 -21.3901 -21.3804 -21.3540 -21.2881 -21.2631 -20.8714
   -20.6541 -20.6323 -20.6142 -20.5377 -20.5295 -20.4164 -20.2833 -20.2779
   -20.2493 -20.1070 -20.1004 -19.5773 -19.4155 -19.3980 -19.3858 -19.3812
   -19.3714 -19.3609 -19.3477 -19.3012 -19.2969 -19.1531 -19.1479 -19.0272
[...]
     atom:   55    charge:    2.6401    magn:   -0.0001    constr:    0.0000
     atom:   56    charge:    2.6432    magn:   -0.0003    constr:    0.0000
     atom:   57    charge:    2.6454    magn:   -0.0018    constr:    0.0000
     atom:   58    charge:    2.6454    magn:    0.0060    constr:    0.0000
     atom:   59    charge:    2.6363    magn:    0.0305    constr:    0.0000
     atom:   60    charge:    2.6376    magn:    0.0147    constr:    0.0000
     atom:   61    charge:    2.6448    magn:    0.0100    constr:    0.0000
     atom:   62    charge:    2.6403    magn:    0.0026    constr:    0.0000
     atom:   63    charge:    2.6401    magn:   -0.0001    constr:    0.0000
     atom:   64    charge:    2.6481    magn:    0.0009    constr:    0.0000
     atom:   65    charge:    2.6473    magn:    0.0038    constr:    0.0000
     atom:   66    charge:    2.6475    magn:    0.0075    constr:    0.0000
     atom:   67    charge:    1.7451    magn:    0.1734    constr:    0.0000
     atom:   68    charge:    2.6358    magn:    0.0535    constr:    0.0000
     atom:   69    charge:    2.6448    magn:    0.0100    constr:    0.0000
     atom:   70    charge:    2.6498    magn:    0.0007    constr:    0.0000
     atom:   71    charge:    2.6484    magn:    0.0003    constr:    0.0000
     atom:   72    charge:    2.6433    magn:    0.0003    constr:    0.0000
     atom:   73    charge:    2.6377    magn:    0.0154    constr:    0.0000
     atom:   74    charge:    2.6066    magn:    0.1183    constr:    0.0000
     atom:   75    charge:    1.7451    magn:    0.1734    constr:    0.0000
     atom:   76    charge:    2.6376    magn:    0.0147    constr:    0.0000
     atom:   77    charge:    2.6480    magn:    0.0028    constr:    0.0000
     atom:   78    charge:    2.6462    magn:    0.0006    constr:    0.0000
     atom:   79    charge:    2.6425    magn:    0.0005    constr:    0.0000
     atom:   80    charge:    2.6344    magn:    0.0068    constr:    0.0000
     atom:   81    charge:    2.6377    magn:    0.0154    constr:    0.0000
     atom:   82    charge:    2.6475    magn:    0.0075    constr:    0.0000
     atom:   83    charge:    2.6363    magn:    0.0305    constr:    0.0000
     atom:   84    charge:    2.6367    magn:    0.0084    constr:    0.0000
     atom:   85    charge:    2.6453    magn:    0.0012    constr:    0.0000
     atom:   86    charge:    2.6441    magn:   -0.0001    constr:    0.0000
     atom:   87    charge:    2.6425    magn:    0.0005    constr:    0.0000
     atom:   88    charge:    2.6433    magn:    0.0003    constr:    0.0000
     atom:   89    charge:    2.6473    magn:    0.0038    constr:    0.0000
     atom:   90    charge:    2.6454    magn:    0.0060    constr:    0.0000
     atom:   91    charge:    2.6494    magn:    0.0005    constr:    0.0000
     atom:   92    charge:    2.6492    magn:    0.0003    constr:    0.0000
     atom:   93    charge:    2.6453    magn:    0.0012    constr:    0.0000
     atom:   94    charge:    2.6462    magn:    0.0006    constr:    0.0000
     atom:   95    charge:    2.6484    magn:    0.0003    constr:    0.0000
     atom:   96    charge:    2.6481    magn:    0.0009    constr:    0.0000
     atom:   97    charge:    2.6454    magn:   -0.0018    constr:    0.0000
     atom:   98    charge:    2.6487    magn:    0.0013    constr:    0.0000

     total cpu time spent up to now is     2517.1 secs

     End of self-consistent calculation

 ------ SPIN UP ------------


          k = 0.0000 0.0000 0.0000 ( 77471 PWs)   bands (ev):

   -21.9123 -21.6555 -21.3927 -21.3844 -21.3570 -21.2993 -21.2832 -20.8957
   -20.6622 -20.6435 -20.6204 -20.5442 -20.5387 -20.4229 -20.2909 -20.2871
   -20.2689 -20.1289 -20.1135 -19.6013 -19.4263 -19.4052 -19.3906 -19.3880
   -19.3803 -19.3662 -19.3617 -19.3172 -19.3117 -19.1678 -19.1593 -19.0375
   -18.9683 -18.9654 -18.9366 -18.7753 -18.7657 -18.5551 -18.5414 -18.5236
   -18.5214 -18.4660 -18.4201 -18.3923 -18.3584 -18.3383 -18.3284 -16.8644
   -15.0386 -13.1830 -12.7775 -12.7768 -12.7426 -12.7131 -12.7074 -12.6422
   -12.5592 -12.5211 -12.5146 -12.4882 -12.4062 -12.1530 -12.0607 -12.0525
   -12.0217 -11.9926 -11.9397 -11.5710 -11.4293 -11.4121 -11.3922 -11.3871
   -11.3612 -11.3570 -11.3528 -11.3121 -11.3002 -11.1071 -11.0430 -10.8713
   -10.7174 -10.7017 -10.6745 -10.6499 -10.4992 -10.0812 -10.0303 -10.0100
    -9.9355  -9.8850  -9.8165  -9.4108  -9.3389  -9.3263  -9.3100  -9.2909
    -9.2735  -9.2188  -9.0714  -8.9641  -8.9629  -8.9128  -8.9082  -8.8958
    -8.8920  -8.8843  -8.8836  -8.8571  -8.8261  -8.8233  -8.8166  -8.8164
    -8.7938  -8.7932  -8.7903  -8.7460  -8.7338  -8.7012  -8.6571  -8.6426
    -8.4653  -8.4571  -8.2140  -8.1879  -8.1846  -8.1052  -8.0855  -7.9819
    -7.8749  -7.8327  -7.8185  -7.7931  -7.7215  -7.7210  -7.5803  -7.5196
    -7.5019  -7.4707  -7.4606  -7.4451  -7.4265  -7.3918  -7.3892  -7.3374
    -7.3365  -7.3354  -7.3220  -7.2820  -7.2330  -7.2302  -7.2008  -7.0376
    -7.0352  -6.9935  -6.9077  -6.8237  -6.6560  -6.5530  -6.2940  -6.2004
    -6.1871  -6.1464  -6.0985  -6.0771  -6.0743  -6.0638  -6.0589  -6.0554
    -6.0351  -6.0309  -6.0081  -5.9853  -5.8865  -5.8308  -5.8074  -5.7186
    -5.5418  -5.4498  -5.4375  -5.4340  -5.3517  -5.2739  -5.1587  -5.1117
    -4.8069  -4.8042  -4.7759  -4.7600  -4.6957  -4.6753  -4.5789  -4.5166
    -4.4943  -4.4937  -4.4593  -3.6470   0.1845   0.2781   0.6818   0.7014
     0.7137   0.7286   0.7377   0.7423   0.7889   0.8069   0.8082   0.8110
     0.8184   0.8398   0.8531   0.8616   0.8906   0.9155   0.9282   0.9467
     0.9983   1.1490   1.2137   1.2487   1.2646   1.2940   1.3038   1.3185
     1.3254   1.3312   1.3477   1.3630   1.4096   1.4350   1.4382   1.4422
     1.4517   1.4601   1.4840   1.8873   2.0989   2.1017   2.1055   2.1149
     2.1203   2.1413   2.1475   2.2521   2.3309

 ------ SPIN DOWN ----------


          k = 0.0000 0.0000 0.0000 ( 77471 PWs)   bands (ev):

   -21.8472 -21.6307 -21.3901 -21.3805 -21.3540 -21.2881 -21.2631 -20.8714
   -20.6541 -20.6323 -20.6142 -20.5377 -20.5295 -20.4164 -20.2833 -20.2779
   -20.2493 -20.1071 -20.1004 -19.5773 -19.4155 -19.3980 -19.3858 -19.3812
   -19.3714 -19.3609 -19.3478 -19.3012 -19.2969 -19.1532 -19.1479 -19.0272
   -18.9597 -18.9580 -18.9152 -18.7604 -18.7479 -18.5421 -18.5317 -18.5105
   -18.5064 -18.4579 -18.4000 -18.3848 -18.3477 -18.3307 -18.3097 -16.6309
   -14.6799 -13.1761 -12.7763 -12.7744 -12.7416 -12.7120 -12.7072 -12.6426
   -12.5576 -12.5201 -12.5119 -12.4734 -12.4052 -12.1484 -12.0601 -12.0486
   -12.0149 -11.9825 -11.9330 -11.5642 -11.4219 -11.4109 -11.3905 -11.3839
   -11.3601 -11.3550 -11.3492 -11.3035 -11.2898 -11.0590 -11.0266 -10.8754
   -10.7166 -10.7017 -10.6695 -10.6441 -10.4957 -10.0750 -10.0274 -10.0016
    -9.9240  -9.8622  -9.8013  -9.4065  -9.3193  -9.3136  -9.3054  -9.2851
    -9.2718  -9.2142  -9.0661  -8.9508  -8.9091  -8.9059  -8.9046  -8.8916
    -8.8911  -8.8822  -8.8791  -8.8546  -8.8238  -8.8170  -8.8153  -8.8095
    -8.7924  -8.7882  -8.7863  -8.7255  -8.7140  -8.6431  -8.6355  -8.6311
    -8.4558  -8.4214  -8.2120  -8.1847  -8.1823  -8.0860  -8.0759  -7.9264
    -7.8565  -7.8211  -7.8012  -7.7856  -7.7030  -7.6867  -7.5730  -7.5099
    -7.4996  -7.4693  -7.4441  -7.4379  -7.4261  -7.3891  -7.3865  -7.3320
    -7.3273  -7.3205  -7.2915  -7.2688  -7.2169  -7.1678  -7.1641  -7.0331
    -7.0169  -6.9915  -6.8818  -6.7953  -6.6294  -6.5243  -6.2481  -6.1958
    -6.1760  -6.1434  -6.0813  -6.0657  -6.0556  -6.0500  -6.0448  -6.0418
    -6.0246  -6.0119  -5.9678  -5.9638  -5.8076  -5.8044  -5.7675  -5.6886
    -5.5181  -5.4379  -5.4255  -5.3994  -5.2547  -5.2021  -5.0809  -5.0246
    -4.7760  -4.7688  -4.7480  -4.7339  -4.6537  -4.6283  -4.5530  -4.4964
    -4.4822  -4.4720  -4.0627  -2.8338  -0.0010   0.1771   0.6706   0.6781
     0.7066   0.7249   0.7324   0.7390   0.7842   0.7929   0.8054   0.8091
     0.8156   0.8338   0.8434   0.8513   0.8783   0.9020   0.9166   0.9501
     0.9662   1.1333   1.2258   1.2298   1.2537   1.2717   1.3147   1.3227
     1.3284   1.3337   1.3420   1.3634   1.3865   1.4350   1.4387   1.4422
     1.4512   1.4593   1.4812   1.8830   2.0906   2.0953   2.0974   2.1093
     2.3042   2.3288   2.3380   2.3639   2.3873

     highest occupied, lowest unoccupied level (ev):    -3.6470   -4.0627

!    total energy              =   -1940.17812018 Ry
     Harris-Foulkes estimate   =   -1940.17812018 Ry
     estimated scf accuracy    <          3.8E-13 Ry

     total all-electron energy =     -7770.002597 Ry

     The total energy is the sum of the following terms:

     one-electron contribution =  -10643.88746925 Ry
     hartree contribution      =    5407.53402456 Ry
     xc contribution           =    -430.67898060 Ry
     ewald contribution        =    4370.30162789 Ry
     DFT-D3 Dispersion         =      -0.27012981 Ry
     one-center paw contrib.   =    -643.17719297 Ry

     total magnetization       =     1.00 Bohr mag/cell
     absolute magnetization    =     2.39 Bohr mag/cell

     convergence has been achieved in  24 iterations

     negative rho (up, down):  4.795E-01 7.813E-03

     Forces acting on atoms (cartesian axes, Ry/au):

     atom    1 type  1   force =     0.00000625   -0.00000695    0.00000000
     atom    2 type  1   force =    -0.00000250   -0.00000634    0.00000000
     atom    3 type  1   force =    -0.00000351   -0.00000611    0.00000000
     atom    4 type  1   force =     0.00000048   -0.00000025    0.00000000
     atom    5 type  1   force =    -0.00000059    0.00000561    0.00000000
     atom    6 type  1   force =     0.00000516    0.00000019    0.00000000
     atom    7 type  1   force =     0.00001007   -0.00000758    0.00000000
     atom    8 type  1   force =     0.00001646   -0.00000635    0.00000000
     atom    9 type  1   force =     0.00000721   -0.00000478    0.00000000
     atom   10 type  1   force =    -0.00000295   -0.00000444    0.00000000
     atom   11 type  1   force =     0.00000340   -0.00000278    0.00000000
     atom   12 type  1   force =     0.00000736    0.00000281    0.00000000
     atom   13 type  1   force =     0.00000609    0.00000736    0.00000000
     atom   14 type  1   force =     0.00001168    0.00000120    0.00000000
     atom   15 type  1   force =     0.00000424   -0.00000665    0.00000000
     atom   16 type  1   force =     0.00000388   -0.00000897    0.00000000
     atom   17 type  1   force =    -0.00000453   -0.00000258    0.00000000
     atom   18 type  1   force =    -0.00000223   -0.00000119    0.00000000
     atom   19 type  1   force =     0.00000614   -0.00000022    0.00000000
     atom   20 type  1   force =     0.00000219    0.00000767    0.00000000
     atom   21 type  1   force =    -0.00000152    0.00000615    0.00000000
     atom   22 type  1   force =    -0.00001064   -0.00000535    0.00000000
     atom   23 type  1   force =    -0.00000550   -0.00000765    0.00000000
     atom   24 type  1   force =    -0.00000824   -0.00000076    0.00000000
     atom   25 type  4   force =    -0.00000689    0.00000325    0.00000000
     atom   26 type  1   force =     0.00000066    0.00000385    0.00000000
     atom   27 type  1   force =     0.00000282    0.00000559    0.00000000
     atom   28 type  1   force =    -0.00000625    0.00000511    0.00000000
     atom   29 type  1   force =    -0.00000749   -0.00000104    0.00000000
     atom   30 type  1   force =    -0.00000911   -0.00000558    0.00000000
     atom   31 type  1   force =    -0.00000617    0.00000092    0.00000000
     atom   32 type  1   force =    -0.00000610    0.00000887    0.00000000
     atom   33 type  1   force =    -0.00000115    0.00000899    0.00000000
     atom   34 type  1   force =     0.00000378    0.00000910    0.00000000
     atom   35 type  1   force =     0.00000145    0.00000595    0.00000000
     atom   36 type  1   force =    -0.00000068    0.00000014    0.00000000
     atom   37 type  1   force =    -0.00000465   -0.00000295    0.00000000
     atom   38 type  1   force =    -0.00000420    0.00000089    0.00000000
     atom   39 type  1   force =    -0.00000378    0.00000677    0.00000000
     atom   40 type  1   force =     0.00000029    0.00000662    0.00000000
     atom   41 type  1   force =     0.00000554    0.00000312    0.00000000
     atom   42 type  1   force =     0.00000483    0.00000297    0.00000000
     atom   43 type  1   force =    -0.00000064   -0.00000497    0.00000000
     atom   44 type  1   force =    -0.00000485   -0.00000482    0.00000000
     atom   45 type  1   force =    -0.00000431   -0.00000361    0.00000000
     atom   46 type  1   force =    -0.00000396    0.00000539    0.00000000
     atom   47 type  1   force =    -0.00000253    0.00000405    0.00000000
     atom   48 type  1   force =     0.00000402   -0.00000483    0.00000000
     atom   49 type  1   force =     0.00000252   -0.00000780    0.00000000
     atom   50 type  2   force =    -0.00000447   -0.00000447    0.00000000
     atom   51 type  2   force =    -0.00000499   -0.00000774    0.00000000
     atom   52 type  2   force =    -0.00000893   -0.00000634    0.00000000
     atom   53 type  2   force =    -0.00000756   -0.00000305    0.00000000
     atom   54 type  2   force =     0.00000262   -0.00000691    0.00000000
     atom   55 type  2   force =     0.00000635   -0.00000894    0.00000000
     atom   56 type  2   force =    -0.00000180   -0.00000536    0.00000000
     atom   57 type  2   force =    -0.00000890   -0.00000636    0.00000000
     atom   58 type  2   force =    -0.00001065   -0.00000330    0.00000000
     atom   59 type  2   force =    -0.00001008   -0.00000606    0.00000000
     atom   60 type  2   force =    -0.00000915   -0.00000530    0.00000000
     atom   61 type  2   force =    -0.00000229   -0.00000599    0.00000000
     atom   62 type  2   force =     0.00000672   -0.00001247    0.00000000
     atom   63 type  2   force =     0.00000166   -0.00001462    0.00000000
     atom   64 type  2   force =     0.00000260   -0.00000371    0.00000000
     atom   65 type  2   force =    -0.00000512    0.00000896    0.00000000
     atom   66 type  2   force =    -0.00000757    0.00000549    0.00000000
     atom   67 type  3   force =    -0.00000598    0.00000055    0.00000000
     atom   68 type  2   force =    -0.00000220    0.00000100    0.00000000
     atom   69 type  2   force =     0.00000631   -0.00000336    0.00000000
     atom   70 type  2   force =     0.00001022   -0.00001134    0.00000000
     atom   71 type  2   force =     0.00000891   -0.00000028    0.00000000
     atom   72 type  2   force =     0.00000529    0.00000790    0.00000000
     atom   73 type  2   force =    -0.00000315    0.00000834    0.00000000
     atom   74 type  2   force =    -0.00000585    0.00000364    0.00000000
     atom   75 type  5   force =    -0.00000406    0.00000565    0.00000000
     atom   76 type  2   force =    -0.00000000    0.00000683    0.00000000
     atom   77 type  2   force =     0.00000517    0.00000052    0.00000000
     atom   78 type  2   force =     0.00000072    0.00000588    0.00000000
     atom   79 type  2   force =     0.00000369    0.00000578    0.00000000
     atom   80 type  2   force =     0.00000082    0.00000571    0.00000000
     atom   81 type  2   force =    -0.00000256    0.00000095    0.00000000
     atom   82 type  2   force =    -0.00000402    0.00000228    0.00000000
     atom   83 type  2   force =    -0.00000179    0.00000619    0.00000000
     atom   84 type  2   force =    -0.00000060    0.00000775    0.00000000
     atom   85 type  2   force =     0.00000283    0.00000744    0.00000000
     atom   86 type  2   force =    -0.00000145    0.00000562    0.00000000
     atom   87 type  2   force =     0.00000061    0.00000419    0.00000000
     atom   88 type  2   force =     0.00000337   -0.00000056    0.00000000
     atom   89 type  2   force =     0.00000249   -0.00000160    0.00000000
     atom   90 type  2   force =     0.00000541    0.00000443    0.00000000
     atom   91 type  2   force =     0.00000733    0.00000746    0.00000000
     atom   92 type  2   force =     0.00000813    0.00000210    0.00000000
     atom   93 type  2   force =    -0.00000050   -0.00000066    0.00000000
     atom   94 type  2   force =    -0.00000495    0.00000218    0.00000000
     atom   95 type  2   force =     0.00000134    0.00000110    0.00000000
     atom   96 type  2   force =     0.00000795   -0.00000271    0.00000000
     atom   97 type  2   force =     0.00000825    0.00000093    0.00000000
     atom   98 type  2   force =     0.00000830    0.00000422    0.00000000

     Total force =     0.000079     Total SCF correction =     0.000001


     Computing stress (Cartesian axis) and pressure


     negative rho (up, down):  4.795E-01 7.813E-03
          total   stress  (Ry/bohr**3)                   (kbar)     P=   -0.16
  -0.00000001  -0.00000000   0.00000000         -0.00     -0.00      0.00
  -0.00000000  -0.00000001   0.00000000         -0.00     -0.00      0.00
   0.00000000   0.00000000  -0.00000334          0.00      0.00     -0.49


     Writing output data file C2Cn.save/
 
     init_run     :      9.05s CPU      9.29s WALL (       2 calls)
     electrons    :   2411.16s CPU   2431.12s WALL (       5 calls)
     update_pot   :     12.01s CPU     12.07s WALL (       3 calls)
     forces       :     18.28s CPU     18.52s WALL (       5 calls)
     stress       :     52.86s CPU     53.10s WALL (       5 calls)

     Called by init_run:
     wfcinit      :      3.37s CPU      3.49s WALL (       2 calls)
     potinit      :      1.95s CPU      1.99s WALL (       2 calls)
     hinit0       :      2.83s CPU      2.87s WALL (       2 calls)

     Called by electrons:
     c_bands      :   2331.11s CPU   2348.22s WALL (      75 calls)
     sum_band     :     39.91s CPU     40.82s WALL (      75 calls)
     v_of_rho     :     14.19s CPU     14.59s WALL (      77 calls)
     newd         :      4.53s CPU      5.01s WALL (      77 calls)
     PAW_pot      :     15.90s CPU     16.08s WALL (      80 calls)
     mix_rho      :      1.21s CPU      1.33s WALL (      75 calls)

     Called by c_bands:
     init_us_2    :      2.43s CPU      2.48s WALL (     330 calls)
     rcgdiagg     :   2256.72s CPU   2272.39s WALL (     161 calls)
     wfcrot       :     75.54s CPU     76.88s WALL (     149 calls)

     Called by sum_band:
     sum_band:bec :      0.09s CPU      0.09s WALL (     156 calls)
     addusdens    :      4.72s CPU      5.21s WALL (      75 calls)

     Called by *cgdiagg:
     h_psi        :   1185.47s CPU   1194.66s WALL (  118249 calls)
     s_psi        :    659.38s CPU    663.69s WALL (  236349 calls)
     rdiaghg      :      2.48s CPU      2.56s WALL (     149 calls)

     Called by h_psi:
     h_psi:pot    :   1184.05s CPU   1193.22s WALL (  118249 calls)
     h_psi:calbec :    377.59s CPU    380.06s WALL (  118249 calls)
     vloc_psi     :    460.41s CPU    465.38s WALL (  118249 calls)
     add_vuspsi   :    344.67s CPU    346.68s WALL (  118249 calls)
     hs_1psi      :   1453.58s CPU   1463.73s WALL (  118100 calls)
     s_1psi       :    672.61s CPU    676.60s WALL (  118100 calls)

     General routines
     calbec       :    726.74s CPU    731.66s WALL (  236555 calls)
     fft          :     12.22s CPU     12.38s WALL (    1473 calls)
     ffts         :      0.50s CPU      0.52s WALL (     150 calls)
     fftw         :    443.60s CPU    448.39s WALL (  291888 calls)
 
     Parallel routines
     fft_scatt_xy :     41.95s CPU     42.32s WALL (  293511 calls)
     fft_scatt_yz :    126.86s CPU    128.57s WALL (  293511 calls)
 
     PWSCF        :  41m47.79s CPU  42m12.99s WALL

 
   This run was terminated on:  14:22:11   9Jun2021            

=------------------------------------------------------------------------------=
   JOB DONE.
=------------------------------------------------------------------------------=
