
     Program PWSCF v.6.4.1 starts on  1Aug2021 at 10: 0:38 

     This program is part of the open-source Quantum ESPRESSO suite
     for quantum simulation of materials; please cite
         "P. Giannozzi et al., J. Phys.:Condens. Matter 21 395502 (2009);
         "P. Giannozzi et al., J. Phys.:Condens. Matter 29 465901 (2017);
          URL http://www.quantum-espresso.org", 
     in publications or presentations arising from this work. More details at
     http://www.quantum-espresso.org/quote

     Parallel version (MPI), running on    64 processors

     MPI processes distributed on     2 nodes
     R & G space division:  proc/nbgrp/npool/nimage =      64
     Waiting for input...
     Reading input from standard input

     Current dimensions of program PWSCF are:
     Max number of different atomic species (ntypx) = 10
     Max number of k-points (npk) =  40000
     Max angular momentum in pseudopotentials (lmaxx) =  3

     IMPORTANT: XC functional enforced from input :
     Exchange-correlation      = HSE ( 1  4 12  4 0 0)
     EXX-fraction              =        0.25
     Using LIBXC version       =    4   3   4
     Any further DFT definition will be discarded
     Please, verify this is what you really want

               file N.pbe-n-kjpaw_psl.1.0.0.UPF: wavefunction(s)  2S renormalized
               file C.pbe-n-kjpaw_psl.1.0.0.UPF: wavefunction(s)  2S 2P renormalized
               file C.pbe-n-kjpaw_psl.1.0.0.UPF: wavefunction(s)  2S 2P renormalized
               file C.pbe-n-kjpaw_psl.1.0.0.UPF: wavefunction(s)  2S 2P renormalized
     EXX fraction changed:   0.32
     EXX Screening parameter changed:    0.0455000

     --------------------------------------------
     Parameters for DFT-D3 Dispersion Correction:
     --------------------------------------------
       Reference C6 values for interpolation: 

         atom   Coordination number   C6
         B          0.000           214.36
         B          0.971           150.74
         B          1.944           106.23
         B          2.913            62.89
         B          4.586            56.06
         C1         0.000            98.23
         C1         0.987            86.49
         C1         1.998            58.72
         C1         2.999            51.56
         C1         3.984            36.41
         C2         0.000            98.23
         C2         0.987            86.49
         C2         1.998            58.72
         C2         2.999            51.56
         C2         3.984            36.41
         C3         0.000            98.23
         C3         0.987            86.49
         C3         1.998            58.72
         C3         2.999            51.56
         C3         3.984            36.41
         N          0.000            50.54
         N          0.994            44.25
         N          2.014            39.35
         N          2.990            31.16

       Values used:

         atom   Coordination number  R0_AB[au]  C6      C8
         B          3.325            3.039     62.90   2506.24
         B          3.317            3.039     62.90   2506.44
         B          3.317            3.039     62.90   2506.43
         B          3.325            3.039     62.90   2506.25
         B          3.327            3.039     62.90   2506.21
         B          3.324            3.039     62.90   2506.27
         B          3.326            3.039     62.90   2506.22
         B          3.325            3.039     62.90   2506.26
         B          3.323            3.039     62.90   2506.30
         B          3.303            3.039     62.91   2506.76
         B          3.322            3.039     62.90   2506.33
         B          3.329            3.039     62.90   2506.15
         B          3.325            3.039     62.90   2506.24
         B          3.324            3.039     62.90   2506.27
         B          3.325            3.039     62.90   2506.26
         B          3.327            3.039     62.90   2506.21
         B          3.297            3.039     62.91   2506.88
         B          3.297            3.039     62.91   2506.90
         B          3.336            3.039     62.89   2505.99
         B          3.329            3.039     62.90   2506.15
         B          3.327            3.039     62.90   2506.21
         B          3.323            3.039     62.90   2506.31
         B          3.319            3.039     62.90   2506.40
         B          3.314            3.039     62.90   2506.51
         C2         3.249            2.750     49.43   1429.56
         B          3.297            3.039     62.91   2506.90
         B          3.322            3.039     62.90   2506.33
         B          3.325            3.039     62.90   2506.25
         B          3.321            3.039     62.90   2506.36
         B          3.319            3.039     62.90   2506.39
         B          3.315            3.039     62.90   2506.50
         B          3.314            3.039     62.90   2506.51
         B          3.297            3.039     62.91   2506.88
         B          3.303            3.039     62.91   2506.76
         B          3.317            3.039     62.90   2506.43
         B          3.316            3.039     62.90   2506.45
         B          3.318            3.039     62.90   2506.42
         B          3.319            3.039     62.90   2506.39
         B          3.319            3.039     62.90   2506.40
         B          3.327            3.039     62.90   2506.21
         B          3.323            3.039     62.90   2506.30
         B          3.317            3.039     62.90   2506.44
         B          3.319            3.039     62.90   2506.40
         B          3.316            3.039     62.90   2506.45
         B          3.321            3.039     62.90   2506.36
         B          3.323            3.039     62.90   2506.31
         B          3.325            3.039     62.90   2506.26
         B          3.325            3.039     62.90   2506.26
         B          3.325            3.039     62.90   2506.24
         N          3.129            2.478     31.22    688.74
         N          3.128            2.478     31.22    688.75
         N          3.125            2.478     31.22    688.79
         N          3.128            2.478     31.22    688.75
         N          3.130            2.478     31.22    688.73
         N          3.129            2.478     31.22    688.75
         N          3.129            2.478     31.22    688.75
         N          3.129            2.478     31.22    688.75
         N          3.129            2.478     31.22    688.74
         N          3.124            2.478     31.22    688.79
         N          3.123            2.478     31.22    688.80
         N          3.132            2.478     31.22    688.72
         N          3.130            2.478     31.22    688.74
         N          3.129            2.478     31.22    688.75
         N          3.130            2.478     31.22    688.74
         N          3.129            2.478     31.22    688.74
         N          3.132            2.478     31.22    688.71
         C1         3.192            2.750     50.14   1450.24
         N          3.134            2.478     31.22    688.70
         N          3.132            2.478     31.22    688.72
         N          3.130            2.478     31.22    688.73
         N          3.129            2.478     31.22    688.75
         N          3.127            2.478     31.22    688.76
         N          3.126            2.478     31.22    688.78
         N          3.155            2.478     31.21    688.52
         C3         3.192            2.750     50.14   1450.24
         N          3.123            2.478     31.22    688.80
         N          3.128            2.478     31.22    688.75
         N          3.127            2.478     31.22    688.77
         N          3.127            2.478     31.22    688.76
         N          3.127            2.478     31.22    688.77
         N          3.126            2.478     31.22    688.78
         N          3.132            2.478     31.22    688.71
         N          3.124            2.478     31.22    688.79
         N          3.125            2.478     31.22    688.79
         N          3.126            2.478     31.22    688.77
         N          3.126            2.478     31.22    688.77
         N          3.127            2.478     31.22    688.76
         N          3.127            2.478     31.22    688.76
         N          3.129            2.478     31.22    688.74
         N          3.129            2.478     31.22    688.74
         N          3.128            2.478     31.22    688.75
         N          3.129            2.478     31.22    688.74
         N          3.126            2.478     31.22    688.77
         N          3.127            2.478     31.22    688.77
         N          3.129            2.478     31.22    688.75
         N          3.130            2.478     31.22    688.74
         N          3.129            2.478     31.22    688.75
         N          3.129            2.478     31.22    688.74

         Molecular C6 ( Ry / a.u.^6 ) =    437698.51


     gamma-point specific algorithms are used
     Message from routine setup :
     BEWARE: nonlinear core correction is not consistent with hybrid XC

     Subspace diagonalization in iterative solution of the eigenvalue problem:
     one sub-group per band group will be used
     scalapack distributed-memory algorithm (size of sub-group:  5*  5 procs)

     EXX: grid of k+q points same as grid of k-points
 
     Parallelization info
     --------------------
     sticks:   dense  smooth     PW     G-vecs:    dense   smooth      PW
     Min         121     121     29                 9962     9962    1241
     Max         124     124     32                 9980     9980    1256
     Sum        7825    7825   1945               637959   637959   79849
 


     bravais-lattice index     =            0
     lattice parameter (alat)  =      33.2346  a.u.
     unit-cell volume          =   36184.4017 (a.u.)^3
     number of atoms/cell      =           98
     number of atomic types    =            5
     number of electrons       =       391.00
     number of Kohn-Sham states=          245
     kinetic-energy cutoff     =      25.7300  Ry
     charge density cutoff     =     102.9200  Ry
     cutoff for Fock operator  =     102.9200  Ry
     convergence threshold     =      1.0E-06
     mixing beta               =       0.7000
     number of iterations used =            8  plain     mixing
     Exchange-correlation      = HSE ( 1  4 12  4 0 0)
     EXX-fraction              =        0.32
     Using LIBXC version       =    4   3   4

     celldm(1)=  33.234611  celldm(2)=   0.000000  celldm(3)=   0.000000
     celldm(4)=   0.000000  celldm(5)=   0.000000  celldm(6)=   0.000000

     crystal axes: (cart. coord. in units of alat)
               a(1) = (   1.000640  -0.000349   0.000000 )  
               a(2) = (  -0.500622   0.866405   0.000000 )  
               a(3) = (   0.000000   0.000000   1.137204 )  

     reciprocal axes: (cart. coord. in units 2 pi/alat)
               b(1) = (  0.999562  0.577562  0.000000 )  
               b(2) = (  0.000402  1.154427  0.000000 )  
               b(3) = (  0.000000  0.000000  0.879350 )  


     PseudoPot. # 1 for B  read from file:
     ./pseudo/B.pbe-n-kjpaw_psl.1.0.0.UPF
     MD5 check sum: 8c825a5969375aca5c2c6ad5945b3059
     Pseudo is Projector augmented-wave + core cor, Zval =  3.0
     Generated using "atomic" code by A. Dal Corso v.6.3
     Shape of augmentation charge: PSQ
     Using radial grid of 1059 points,  4 beta functions with: 
                l(1) =   0
                l(2) =   0
                l(3) =   1
                l(4) =   1
     Q(r) pseudized with 0 coefficients 


     PseudoPot. # 2 for N  read from file:
     ./pseudo/N.pbe-n-kjpaw_psl.1.0.0.UPF
     MD5 check sum: 14c48229446f9f2d411169a3abcbc3fa
     Pseudo is Projector augmented-wave + core cor, Zval =  5.0
     Generated using "atomic" code by A. Dal Corso v.6.3
     Shape of augmentation charge: PSQ
     Using radial grid of 1085 points,  4 beta functions with: 
                l(1) =   0
                l(2) =   0
                l(3) =   1
                l(4) =   1
     Q(r) pseudized with 0 coefficients 


     PseudoPot. # 3 for C  read from file:
     ./pseudo/C.pbe-n-kjpaw_psl.1.0.0.UPF
     MD5 check sum: 5f16ad9a65e90284d1d834d4ab3b0f7d
     Pseudo is Projector augmented-wave + core cor, Zval =  4.0
     Generated using "atomic" code by A. Dal Corso v.6.3
     Shape of augmentation charge: PSQ
     Using radial grid of 1073 points,  4 beta functions with: 
                l(1) =   0
                l(2) =   0
                l(3) =   1
                l(4) =   1
     Q(r) pseudized with 0 coefficients 


     PseudoPot. # 4 for C  read from file:
     ./pseudo/C.pbe-n-kjpaw_psl.1.0.0.UPF
     MD5 check sum: 5f16ad9a65e90284d1d834d4ab3b0f7d
     Pseudo is Projector augmented-wave + core cor, Zval =  4.0
     Generated using "atomic" code by A. Dal Corso v.6.3
     Shape of augmentation charge: PSQ
     Using radial grid of 1073 points,  4 beta functions with: 
                l(1) =   0
                l(2) =   0
                l(3) =   1
                l(4) =   1
     Q(r) pseudized with 0 coefficients 


     PseudoPot. # 5 for C  read from file:
     ./pseudo/C.pbe-n-kjpaw_psl.1.0.0.UPF
     MD5 check sum: 5f16ad9a65e90284d1d834d4ab3b0f7d
     Pseudo is Projector augmented-wave + core cor, Zval =  4.0
     Generated using "atomic" code by A. Dal Corso v.6.3
     Shape of augmentation charge: PSQ
     Using radial grid of 1073 points,  4 beta functions with: 
                l(1) =   0
                l(2) =   0
                l(3) =   1
                l(4) =   1
     Q(r) pseudized with 0 coefficients 


     atomic species   valence    mass     pseudopotential
        B              3.00    10.00000     B ( 1.00)
        N              5.00    14.00000     N ( 1.00)
        C1             4.00    12.00000     C ( 1.00)
        C2             4.00    12.00000     C ( 1.00)
        C3             4.00    12.00000     C ( 1.00)

     Starting magnetic structure 
     atomic species   magnetization
        B            0.000
        N            0.000
        C1           1.000
        C2           0.000
        C3           0.000

     No symmetry found



   Cartesian axes

     site n.     atom                  positions (alat units)
         1           B   tau(   1) = (  -0.0000233   0.0821617   0.5686018  )
         2           B   tau(   2) = (  -0.0713866   0.2062009   0.5686018  )
         3           B   tau(   3) = (  -0.1430783   0.3301031   0.5686018  )
         4           B   tau(   4) = (  -0.2149375   0.4537632   0.5686018  )
         5           B   tau(   5) = (  -0.2861755   0.5775434   0.5686018  )
         6           B   tau(   6) = (  -0.3574872   0.7014372   0.5686018  )
         7           B   tau(   7) = (  -0.4290711   0.8250953   0.5686018  )
         8           B   tau(   8) = (   0.1428779   0.0818580   0.5686018  )
         9           B   tau(   9) = (   0.0712222   0.2053694   0.5686018  )
        10           B   tau(  10) = (   0.0002327   0.3301362   0.5686018  )
        11           B   tau(  11) = (  -0.0725304   0.4539838   0.5686018  )
        12           B   tau(  12) = (  -0.1441451   0.5777657   0.5686018  )
        13           B   tau(  13) = (  -0.2149187   0.7014543   0.5686018  )
        14           B   tau(  14) = (  -0.2861881   0.8249309   0.5686018  )
        15           B   tau(  15) = (   0.2862131   0.0818140   0.5686018  )
        16           B   tau(  16) = (   0.2148456   0.2045690   0.5686018  )
        17           B   tau(  17) = (   0.1436176   0.3272083   0.5686018  )
        18           B   tau(  18) = (   0.0696289   0.4562046   0.5686018  )
        19           B   tau(  19) = (  -0.0025925   0.5788678   0.5686018  )
        20           B   tau(  20) = (  -0.0724144   0.7020070   0.5686018  )
        21           B   tau(  21) = (  -0.1432370   0.8251201   0.5686018  )
        22           B   tau(  22) = (   0.4289841   0.0823577   0.5686018  )
        23           B   tau(  23) = (   0.3574544   0.2061244   0.5686018  )
        24           B   tau(  24) = (   0.2853662   0.3296798   0.5686018  )
        25           C2  tau(  25) = (   0.2152526   0.4530948   0.5686018  )
        26           B   tau(  26) = (   0.1397476   0.5776538   0.5686018  )
        27           B   tau(  27) = (   0.0705912   0.7018778   0.5686018  )
        28           B   tau(  28) = (  -0.0004212   0.8253162   0.5686018  )
        29           B   tau(  29) = (   0.5717760   0.0822445   0.5686018  )
        30           B   tau(  30) = (   0.5003561   0.2060412   0.5686018  )
        31           B   tau(  31) = (   0.4287233   0.3298475   0.5686018  )
        32           B   tau(  32) = (   0.3571899   0.4540822   0.5686018  )
        33           B   tau(  33) = (   0.2884561   0.5780758   0.5686018  )
        34           B   tau(  34) = (   0.2142280   0.7007869   0.5686018  )
        35           B   tau(  35) = (   0.1426011   0.8249144   0.5686018  )
        36           B   tau(  36) = (   0.7147681   0.0821485   0.5686018  )
        37           B   tau(  37) = (   0.6432419   0.2059952   0.5686018  )
        38           B   tau(  38) = (   0.5717591   0.3297149   0.5686018  )
        39           B   tau(  39) = (   0.5002362   0.4534298   0.5686018  )
        40           B   tau(  40) = (   0.4302789   0.5777103   0.5686018  )
        41           B   tau(  41) = (   0.3577740   0.7016916   0.5686018  )
        42           B   tau(  42) = (   0.2857495   0.8247786   0.5686018  )
        43           B   tau(  43) = (   0.8578476   0.0820925   0.5686018  )
        44           B   tau(  44) = (   0.7862593   0.2059749   0.5686018  )
        45           B   tau(  45) = (   0.7146801   0.3297618   0.5686018  )
        46           B   tau(  46) = (   0.6431861   0.4533666   0.5686018  )
        47           B   tau(  47) = (   0.5722715   0.5772817   0.5686018  )
        48           B   tau(  48) = (   0.5005658   0.7013916   0.5686018  )
        49           B   tau(  49) = (   0.4288522   0.8249958   0.5686018  )
        50           N   tau(  50) = (   0.0714331   0.0409759   0.5686018  )
        51           N   tau(  51) = (  -0.0001876   0.1644906   0.5686018  )
        52           N   tau(  52) = (  -0.0713557   0.2888776   0.5686018  )
        53           N   tau(  53) = (  -0.1436341   0.4125195   0.5686018  )
        54           N   tau(  54) = (  -0.2151393   0.5362333   0.5686018  )
        55           N   tau(  55) = (  -0.2862233   0.6600795   0.5686018  )
        56           N   tau(  56) = (  -0.3576342   0.7838513   0.5686018  )
        57           N   tau(  57) = (   0.2145160   0.0409095   0.5686018  )
        58           N   tau(  58) = (   0.1429488   0.1642146   0.5686018  )
        59           N   tau(  59) = (   0.0713660   0.2876061   0.5686018  )
        60           N   tau(  60) = (  -0.0007870   0.4130708   0.5686018  )
        61           N   tau(  61) = (  -0.0731783   0.5365814   0.5686018  )
        62           N   tau(  62) = (  -0.1436888   0.6603299   0.5686018  )
        63           N   tau(  63) = (  -0.2147393   0.7838935   0.5686018  )
        64           N   tau(  64) = (   0.3576142   0.0410192   0.5686018  )
        65           N   tau(  65) = (   0.2863754   0.1641474   0.5686018  )
        66           N   tau(  66) = (   0.2150130   0.2867948   0.5686018  )
        67           C1  tau(  67) = (   0.1457790   0.4134614   0.5686018  )
        68           N   tau(  68) = (   0.0679304   0.5381514   0.5686018  )
        69           N   tau(  69) = (  -0.0012643   0.6611402   0.5686018  )
        70           N   tau(  70) = (  -0.0719434   0.7842561   0.5686018  )
        71           N   tau(  71) = (   0.5003317   0.0412613   0.5686018  )
        72           N   tau(  72) = (   0.4288916   0.1649165   0.5686018  )
        73           N   tau(  73) = (   0.3571532   0.2888803   0.5686018  )
        74           N   tau(  74) = (   0.2850449   0.4128002   0.5686018  )
        75           C3  tau(  75) = (   0.2148394   0.5330775   0.5686018  )
        76           N   tau(  76) = (   0.1418947   0.6602027   0.5686018  )
        77           N   tau(  77) = (   0.0709485   0.7841876   0.5686018  )
        78           N   tau(  78) = (   0.6432797   0.0409898   0.5686018  )
        79           N   tau(  79) = (   0.5717930   0.1647678   0.5686018  )
        80           N   tau(  80) = (   0.5002145   0.2885720   0.5686018  )
        81           N   tau(  81) = (   0.4284168   0.4123125   0.5686018  )
        82           N   tau(  82) = (   0.3591528   0.5364523   0.5686018  )
        83           N   tau(  83) = (   0.2866267   0.6604486   0.5686018  )
        84           N   tau(  84) = (   0.2141647   0.7834136   0.5686018  )
        85           N   tau(  85) = (   0.7862879   0.0408973   0.5686018  )
        86           N   tau(  86) = (   0.7147525   0.1647085   0.5686018  )
        87           N   tau(  87) = (   0.6432213   0.2884853   0.5686018  )
        88           N   tau(  88) = (   0.5716419   0.4121672   0.5686018  )
        89           N   tau(  89) = (   0.5010498   0.5359745   0.5686018  )
        90           N   tau(  90) = (   0.4292784   0.6601520   0.5686018  )
        91           N   tau(  91) = (   0.3574711   0.7839737   0.5686018  )
        92           N   tau(  92) = (   0.9292454   0.0408710   0.5686018  )
        93           N   tau(  93) = (   0.8577438   0.1646625   0.5686018  )
        94           N   tau(  94) = (   0.7861596   0.2884650   0.5686018  )
        95           N   tau(  95) = (   0.7144506   0.4121259   0.5686018  )
        96           N   tau(  96) = (   0.6433014   0.5358440   0.5686018  )
        97           N   tau(  97) = (   0.5718474   0.6598256   0.5686018  )
        98           N   tau(  98) = (   0.5002484   0.7837058   0.5686018  )

     number of k points=     1
                       cart. coord. in units 2pi/alat
        k(    1) = (   0.0000000   0.0000000   0.0000000), wk =   1.0000000

     Dense  grid:   318980 G-vectors     FFT dimensions: ( 108, 108, 125)

     Occupations read from input 

      Spin-up

        1.0000   1.0000   1.0000   1.0000   1.0000   1.0000   1.0000   1.0000
        1.0000   1.0000   1.0000   1.0000   1.0000   1.0000   1.0000   1.0000
        1.0000   1.0000   1.0000   1.0000   1.0000   1.0000   1.0000   1.0000
        1.0000   1.0000   1.0000   1.0000   1.0000   1.0000   1.0000   1.0000
        1.0000   1.0000   1.0000   1.0000   1.0000   1.0000   1.0000   1.0000
        1.0000   1.0000   1.0000   1.0000   1.0000   1.0000   1.0000   1.0000
        1.0000   1.0000   1.0000   1.0000   1.0000   1.0000   1.0000   1.0000
        1.0000   1.0000   1.0000   1.0000   1.0000   1.0000   1.0000   1.0000
        1.0000   1.0000   1.0000   1.0000   1.0000   1.0000   1.0000   1.0000
        1.0000   1.0000   1.0000   1.0000   1.0000   1.0000   1.0000   1.0000
        1.0000   1.0000   1.0000   1.0000   1.0000   1.0000   1.0000   1.0000
        1.0000   1.0000   1.0000   1.0000   1.0000   1.0000   1.0000   1.0000
        1.0000   1.0000   1.0000   1.0000   1.0000   1.0000   1.0000   1.0000
        1.0000   1.0000   1.0000   1.0000   1.0000   1.0000   1.0000   1.0000
        1.0000   1.0000   1.0000   1.0000   1.0000   1.0000   1.0000   1.0000
        1.0000   1.0000   1.0000   1.0000   1.0000   1.0000   1.0000   1.0000
        1.0000   1.0000   1.0000   1.0000   1.0000   1.0000   1.0000   1.0000
        1.0000   1.0000   1.0000   1.0000   1.0000   1.0000   1.0000   1.0000
        1.0000   1.0000   1.0000   1.0000   1.0000   1.0000   1.0000   1.0000
        1.0000   1.0000   1.0000   1.0000   1.0000   1.0000   1.0000   1.0000
        1.0000   1.0000   1.0000   1.0000   1.0000   1.0000   1.0000   1.0000
        1.0000   1.0000   1.0000   1.0000   1.0000   1.0000   1.0000   1.0000
        1.0000   1.0000   1.0000   1.0000   1.0000   1.0000   1.0000   1.0000
        1.0000   1.0000   1.0000   1.0000   1.0000   1.0000   1.0000   1.0000
        1.0000   1.0000   1.0000   1.0000   0.0000   0.0000   0.0000   0.0000
        0.0000   0.0000   0.0000   0.0000   0.0000   0.0000   0.0000   0.0000
        0.0000   0.0000   0.0000   0.0000   0.0000   0.0000   0.0000   0.0000
        0.0000   0.0000   0.0000   0.0000   0.0000   0.0000   0.0000   0.0000
        0.0000   0.0000   0.0000   0.0000   0.0000   0.0000   0.0000   0.0000
        0.0000   0.0000   0.0000   0.0000   0.0000   0.0000   0.0000   0.0000
        0.0000   0.0000   0.0000   0.0000   0.0000

      Spin-down

        1.0000   1.0000   1.0000   1.0000   1.0000   1.0000   1.0000   1.0000
        1.0000   1.0000   1.0000   1.0000   1.0000   1.0000   1.0000   1.0000
        1.0000   1.0000   1.0000   1.0000   1.0000   1.0000   1.0000   1.0000
        1.0000   1.0000   1.0000   1.0000   1.0000   1.0000   1.0000   1.0000
        1.0000   1.0000   1.0000   1.0000   1.0000   1.0000   1.0000   1.0000
        1.0000   1.0000   1.0000   1.0000   1.0000   1.0000   1.0000   1.0000
        1.0000   1.0000   1.0000   1.0000   1.0000   1.0000   1.0000   1.0000
        1.0000   1.0000   1.0000   1.0000   1.0000   1.0000   1.0000   1.0000
        1.0000   1.0000   1.0000   1.0000   1.0000   1.0000   1.0000   1.0000
        1.0000   1.0000   1.0000   1.0000   1.0000   1.0000   1.0000   1.0000
        1.0000   1.0000   1.0000   1.0000   1.0000   1.0000   1.0000   1.0000
        1.0000   1.0000   1.0000   1.0000   1.0000   1.0000   1.0000   1.0000
        1.0000   1.0000   1.0000   1.0000   1.0000   1.0000   1.0000   1.0000
        1.0000   1.0000   1.0000   1.0000   1.0000   1.0000   1.0000   1.0000
        1.0000   1.0000   1.0000   1.0000   1.0000   1.0000   1.0000   1.0000
        1.0000   1.0000   1.0000   1.0000   1.0000   1.0000   1.0000   1.0000
        1.0000   1.0000   1.0000   1.0000   1.0000   1.0000   1.0000   1.0000
        1.0000   1.0000   1.0000   1.0000   1.0000   1.0000   1.0000   1.0000
        1.0000   1.0000   1.0000   1.0000   1.0000   1.0000   1.0000   1.0000
        1.0000   1.0000   1.0000   1.0000   1.0000   1.0000   1.0000   1.0000
        1.0000   1.0000   1.0000   1.0000   1.0000   1.0000   1.0000   1.0000
        1.0000   1.0000   1.0000   1.0000   1.0000   1.0000   1.0000   1.0000
        1.0000   1.0000   1.0000   1.0000   1.0000   1.0000   1.0000   1.0000
        1.0000   1.0000   1.0000   1.0000   1.0000   1.0000   1.0000   1.0000
        1.0000   1.0000   1.0000   0.0000   0.0000   0.0000   0.0000   0.0000
        0.0000   0.0000   0.0000   0.0000   0.0000   0.0000   0.0000   0.0000
        0.0000   0.0000   0.0000   0.0000   0.0000   0.0000   0.0000   0.0000
        0.0000   0.0000   0.0000   0.0000   0.0000   0.0000   0.0000   0.0000
        0.0000   0.0000   0.0000   0.0000   0.0000   0.0000   0.0000   0.0000
        0.0000   0.0000   0.0000   0.0000   0.0000   0.0000   0.0000   0.0000
        0.0000   0.0000   0.0000   0.0000   0.0000

     Estimated max dynamical RAM per process >     156.99 MB

     Estimated total dynamical RAM >       9.81 GB
     Generating pointlists ...
     new r_m :   0.0336 (alat units)  1.1164 (a.u.) for type    1
     new r_m :   0.0332 (alat units)  1.1048 (a.u.) for type    2
     new r_m :   0.0330 (alat units)  1.0965 (a.u.) for type    3
     new r_m :   0.0330 (alat units)  1.0965 (a.u.) for type    4
     new r_m :   0.0330 (alat units)  1.0965 (a.u.) for type    5

     Check: negative core charge=   -0.000147

     Initial potential from superposition of free atoms

     starting charge  390.98597, renormalised to  391.00000

     negative rho (up, down):  7.584E-01 1.175E-03
     Starting wfcs are  392 randomized atomic wfcs

     total cpu time spent up to now is        6.4 secs

     Self-consistent Calculation

     iteration #  1     ecut=    25.73 Ry     beta= 0.70
     CG style diagonalization
     ethr =  1.00E-02,  avg # of iterations =  3.1

     negative rho (up, down):  2.374E+00 6.935E-03

     total cpu time spent up to now is       24.8 secs

     total energy              =   -1932.17668237 Ry
     Harris-Foulkes estimate   =   -1942.84133679 Ry
     estimated scf accuracy    <      17.24961085 Ry

     total magnetization       =     1.00 Bohr mag/cell
     absolute magnetization    =     1.61 Bohr mag/cell

     iteration #  2     ecut=    25.73 Ry     beta= 0.70
     CG style diagonalization
     ethr =  4.41E-03,  avg # of iterations =  4.0

     negative rho (up, down):  2.688E+00 5.448E-03

     total cpu time spent up to now is       42.0 secs

     total energy              =   -1935.87162486 Ry
     Harris-Foulkes estimate   =   -1940.51332942 Ry
     estimated scf accuracy    <       8.97209013 Ry

     total magnetization       =     1.00 Bohr mag/cell
     absolute magnetization    =     1.41 Bohr mag/cell

     iteration #  3     ecut=    25.73 Ry     beta= 0.70
     CG style diagonalization
     ethr =  2.29E-03,  avg # of iterations =  3.8

     negative rho (up, down):  3.057E+00 4.985E-03

     total cpu time spent up to now is       58.0 secs

     total energy              =   -1937.76147800 Ry
     Harris-Foulkes estimate   =   -1937.94219954 Ry
     estimated scf accuracy    <       0.35172384 Ry

     total magnetization       =     1.00 Bohr mag/cell
     absolute magnetization    =     1.26 Bohr mag/cell

     iteration #  4     ecut=    25.73 Ry     beta= 0.70
     CG style diagonalization
     ethr =  9.00E-05,  avg # of iterations =  8.5

     negative rho (up, down):  3.190E+00 4.456E-03

     total cpu time spent up to now is       94.5 secs

     total energy              =   -1937.83697797 Ry
     Harris-Foulkes estimate   =   -1938.02025822 Ry
     estimated scf accuracy    <       0.47474202 Ry

     total magnetization       =     1.00 Bohr mag/cell
     absolute magnetization    =     1.22 Bohr mag/cell

     iteration #  5     ecut=    25.73 Ry     beta= 0.70
     CG style diagonalization
     c_bands:  1 eigenvalues not converged
     ethr =  9.00E-05,  avg # of iterations =  3.4

     negative rho (up, down):  3.249E+00 4.302E-03

     total cpu time spent up to now is      108.5 secs

     total energy              =   -1937.91117588 Ry
     Harris-Foulkes estimate   =   -1937.91561130 Ry
     estimated scf accuracy    <       0.01312129 Ry

     total magnetization       =     1.00 Bohr mag/cell
     absolute magnetization    =     1.24 Bohr mag/cell

     iteration #  6     ecut=    25.73 Ry     beta= 0.70
     CG style diagonalization
     c_bands:  3 eigenvalues not converged
     c_bands:  1 eigenvalues not converged
     ethr =  3.36E-06,  avg # of iterations =  4.8

     negative rho (up, down):  3.297E+00 4.353E-03

     total cpu time spent up to now is      130.1 secs

     total energy              =   -1937.91653970 Ry
     Harris-Foulkes estimate   =   -1937.91842909 Ry
     estimated scf accuracy    <       0.00746791 Ry

     total magnetization       =     1.00 Bohr mag/cell
     absolute magnetization    =     1.24 Bohr mag/cell

     iteration #  7     ecut=    25.73 Ry     beta= 0.70
     CG style diagonalization
     c_bands:  2 eigenvalues not converged
     c_bands:  2 eigenvalues not converged
     ethr =  1.91E-06,  avg # of iterations =  3.7

     negative rho (up, down):  3.302E+00 4.318E-03

     total cpu time spent up to now is      145.3 secs

     total energy              =   -1937.91813985 Ry
     Harris-Foulkes estimate   =   -1937.91829377 Ry
     estimated scf accuracy    <       0.00067169 Ry

     total magnetization       =     1.00 Bohr mag/cell
     absolute magnetization    =     1.25 Bohr mag/cell

     iteration #  8     ecut=    25.73 Ry     beta= 0.70
     CG style diagonalization
     ethr =  1.72E-07,  avg # of iterations =  3.5

     negative rho (up, down):  3.301E+00 4.320E-03

     total cpu time spent up to now is      159.8 secs

     total energy              =   -1937.91826195 Ry
     Harris-Foulkes estimate   =   -1937.91829364 Ry
     estimated scf accuracy    <       0.00020525 Ry

     total magnetization       =     1.00 Bohr mag/cell
     absolute magnetization    =     1.25 Bohr mag/cell

     iteration #  9     ecut=    25.73 Ry     beta= 0.70
     CG style diagonalization
     ethr =  5.25E-08,  avg # of iterations =  3.7

     negative rho (up, down):  3.300E+00 4.326E-03

     total cpu time spent up to now is      175.3 secs

     total energy              =   -1937.91835433 Ry
     Harris-Foulkes estimate   =   -1937.91833408 Ry
     estimated scf accuracy    <       0.00003371 Ry

     total magnetization       =     1.00 Bohr mag/cell
     absolute magnetization    =     1.25 Bohr mag/cell

     iteration # 10     ecut=    25.73 Ry     beta= 0.70
     CG style diagonalization
     ethr =  8.62E-09,  avg # of iterations =  3.6

     negative rho (up, down):  3.300E+00 4.344E-03

     total cpu time spent up to now is      190.3 secs

     total energy              =   -1937.91836507 Ry
     Harris-Foulkes estimate   =   -1937.91836923 Ry
     estimated scf accuracy    <       0.00002388 Ry

     total magnetization       =     1.00 Bohr mag/cell
     absolute magnetization    =     1.25 Bohr mag/cell

     iteration # 11     ecut=    25.73 Ry     beta= 0.70
     CG style diagonalization
     ethr =  6.11E-09,  avg # of iterations =  3.2

     negative rho (up, down):  3.300E+00 4.343E-03

     total cpu time spent up to now is      203.3 secs

     total energy              =   -1937.91836691 Ry
     Harris-Foulkes estimate   =   -1937.91836913 Ry
     estimated scf accuracy    <       0.00000470 Ry

     total magnetization       =     1.00 Bohr mag/cell
     absolute magnetization    =     1.25 Bohr mag/cell

     iteration # 12     ecut=    25.73 Ry     beta= 0.70
     CG style diagonalization
     ethr =  1.20E-09,  avg # of iterations =  3.9

     negative rho (up, down):  3.300E+00 4.354E-03
 
     Magnetic moment per site:
     atom:    1    charge:    0.8560    magn:   -0.0000    constr:    0.0000
     atom:    2    charge:    0.8511    magn:    0.0003    constr:    0.0000
     atom:    3    charge:    0.8514    magn:    0.0008    constr:    0.0000
     atom:    4    charge:    0.8538    magn:   -0.0000    constr:    0.0000
     atom:    5    charge:    0.8563    magn:    0.0000    constr:    0.0000
     atom:    6    charge:    0.8557    magn:    0.0001    constr:    0.0000
     atom:    7    charge:    0.8561    magn:   -0.0000    constr:    0.0000
     atom:    8    charge:    0.8527    magn:    0.0001    constr:    0.0000
     atom:    9    charge:    0.8550    magn:   -0.0003    constr:    0.0000
     atom:   10    charge:    0.8409    magn:    0.0031    constr:    0.0000
     atom:   11    charge:    0.8524    magn:    0.0005    constr:    0.0000
     atom:   12    charge:    0.8555    magn:    0.0001    constr:    0.0000
     atom:   13    charge:    0.8525    magn:   -0.0000    constr:    0.0000
     atom:   14    charge:    0.8557    magn:    0.0001    constr:    0.0000
     atom:   15    charge:    0.8549    magn:   -0.0001    constr:    0.0000
     atom:   16    charge:    0.8561    magn:    0.0001    constr:    0.0000
     atom:   17    charge:    0.8651    magn:    0.0025    constr:    0.0000
     atom:   18    charge:    0.8554    magn:    0.0075    constr:    0.0000
     atom:   19    charge:    0.8652    magn:   -0.0004    constr:    0.0000
     atom:   20    charge:    0.8555    magn:    0.0001    constr:    0.0000
     atom:   21    charge:    0.8563    magn:    0.0000    constr:    0.0000
     atom:   22    charge:    0.8514    magn:    0.0000    constr:    0.0000
     atom:   23    charge:    0.8500    magn:    0.0003    constr:    0.0000
     atom:   24    charge:    0.8484    magn:   -0.0007    constr:    0.0000
     atom:   25    charge:    1.6257    magn:   -0.0253    constr:    0.0000
     atom:   26    charge:    0.8554    magn:    0.0076    constr:    0.0000
     atom:   27    charge:    0.8524    magn:    0.0005    constr:    0.0000
     atom:   28    charge:    0.8538    magn:   -0.0000    constr:    0.0000
     atom:   29    charge:    0.8511    magn:    0.0001    constr:    0.0000
     atom:   30    charge:    0.8520    magn:    0.0000    constr:    0.0000
     atom:   31    charge:    0.8522    magn:   -0.0003    constr:    0.0000
     atom:   32    charge:    0.8484    magn:   -0.0007    constr:    0.0000
     atom:   33    charge:    0.8650    magn:    0.0026    constr:    0.0000
     atom:   34    charge:    0.8408    magn:    0.0031    constr:    0.0000
     atom:   35    charge:    0.8514    magn:    0.0008    constr:    0.0000
     atom:   36    charge:    0.8498    magn:    0.0003    constr:    0.0000
     atom:   37    charge:    0.8517    magn:   -0.0000    constr:    0.0000
     atom:   38    charge:    0.8520    magn:    0.0000    constr:    0.0000
     atom:   39    charge:    0.8500    magn:    0.0003    constr:    0.0000
     atom:   40    charge:    0.8561    magn:    0.0001    constr:    0.0000
     atom:   41    charge:    0.8550    magn:   -0.0003    constr:    0.0000
     atom:   42    charge:    0.8511    magn:    0.0003    constr:    0.0000
     atom:   43    charge:    0.8488    magn:   -0.0000    constr:    0.0000
     atom:   44    charge:    0.8498    magn:    0.0003    constr:    0.0000
     atom:   45    charge:    0.8511    magn:    0.0001    constr:    0.0000
     atom:   46    charge:    0.8514    magn:    0.0000    constr:    0.0000
     atom:   47    charge:    0.8549    magn:   -0.0001    constr:    0.0000
     atom:   48    charge:    0.8527    magn:    0.0001    constr:    0.0000
     atom:   49    charge:    0.8560    magn:   -0.0000    constr:    0.0000
     atom:   50    charge:    2.7594    magn:    0.0005    constr:    0.0000
     atom:   51    charge:    2.7527    magn:   -0.0002    constr:    0.0000
     atom:   52    charge:    2.7491    magn:    0.0030    constr:    0.0000
     atom:   53    charge:    2.7544    magn:    0.0000    constr:    0.0000
     atom:   54    charge:    2.7566    magn:    0.0001    constr:    0.0000
     atom:   55    charge:    2.7558    magn:    0.0000    constr:    0.0000
     atom:   56    charge:    2.7509    magn:   -0.0001    constr:    0.0000
     atom:   57    charge:    2.7534    magn:    0.0003    constr:    0.0000
     atom:   58    charge:    2.7510    magn:    0.0041    constr:    0.0000
     atom:   59    charge:    2.7498    magn:    0.0066    constr:    0.0000
     atom:   60    charge:    2.7444    magn:    0.0127    constr:    0.0000
     atom:   61    charge:    2.7553    magn:    0.0013    constr:    0.0000
     atom:   62    charge:    2.7504    magn:   -0.0001    constr:    0.0000
     atom:   63    charge:    2.7558    magn:    0.0000    constr:    0.0000
     atom:   64    charge:    2.7618    magn:    0.0000    constr:    0.0000
     atom:   65    charge:    2.7532    magn:    0.0003    constr:    0.0000
     atom:   66    charge:    2.7558    magn:    0.0164    constr:    0.0000
     atom:   67    charge:    1.6502    magn:    0.1188    constr:    0.0000
     atom:   68    charge:    2.7714    magn:   -0.0024    constr:    0.0000
     atom:   69    charge:    2.7553    magn:    0.0012    constr:    0.0000
     atom:   70    charge:    2.7566    magn:    0.0001    constr:    0.0000
     atom:   71    charge:    2.7534    magn:   -0.0000    constr:    0.0000
     atom:   72    charge:    2.7507    magn:    0.0002    constr:    0.0000
     atom:   73    charge:    2.7477    magn:    0.0013    constr:    0.0000
     atom:   74    charge:    2.7325    magn:   -0.0027    constr:    0.0000
     atom:   75    charge:    1.6503    magn:    0.1182    constr:    0.0000
     atom:   76    charge:    2.7444    magn:    0.0126    constr:    0.0000
     atom:   77    charge:    2.7545    magn:    0.0000    constr:    0.0000
     atom:   78    charge:    2.7584    magn:    0.0000    constr:    0.0000
     atom:   79    charge:    2.7500    magn:   -0.0000    constr:    0.0000
     atom:   80    charge:    2.7613    magn:   -0.0001    constr:    0.0000
     atom:   81    charge:    2.7477    magn:    0.0013    constr:    0.0000
     atom:   82    charge:    2.7558    magn:    0.0163    constr:    0.0000
     atom:   83    charge:    2.7499    magn:    0.0065    constr:    0.0000
     atom:   84    charge:    2.7492    magn:    0.0030    constr:    0.0000
     atom:   85    charge:    2.7517    magn:    0.0004    constr:    0.0000
     atom:   86    charge:    2.7464    magn:   -0.0001    constr:    0.0000
     atom:   87    charge:    2.7500    magn:   -0.0000    constr:    0.0000
     atom:   88    charge:    2.7507    magn:    0.0002    constr:    0.0000
     atom:   89    charge:    2.7532    magn:    0.0003    constr:    0.0000
     atom:   90    charge:    2.7510    magn:    0.0041    constr:    0.0000
     atom:   91    charge:    2.7527    magn:   -0.0002    constr:    0.0000
     atom:   92    charge:    2.7601    magn:   -0.0001    constr:    0.0000
     atom:   93    charge:    2.7517    magn:    0.0004    constr:    0.0000
     atom:   94    charge:    2.7584    magn:    0.0000    constr:    0.0000
     atom:   95    charge:    2.7534    magn:   -0.0000    constr:    0.0000
     atom:   96    charge:    2.7618    magn:    0.0000    constr:    0.0000
     atom:   97    charge:    2.7534    magn:    0.0003    constr:    0.0000
     atom:   98    charge:    2.7595    magn:    0.0005    constr:    0.0000

     total cpu time spent up to now is      219.7 secs

     End of self-consistent calculation

 ------ SPIN UP ------------


          k = 0.0000 0.0000 0.0000 ( 39925 PWs)   bands (ev):

   -22.0141 -21.8087 -21.6325 -21.6244 -21.6062 -21.5540 -21.5018 -21.0981
   -20.9069 -20.8897 -20.8882 -20.8067 -20.7946 -20.6756 -20.5581 -20.5498
   -20.5281 -20.3964 -20.3828 -19.8597 -19.6816 -19.6791 -19.6755 -19.6644
   -19.6627 -19.6547 -19.6539 -19.6226 -19.6057 -19.4568 -19.4511 -19.3247
   -19.2749 -19.2742 -19.2454 -19.0835 -19.0747 -18.8609 -18.8520 -18.8404
   -18.8283 -18.7677 -18.7503 -18.6987 -18.6758 -18.6730 -18.6575 -17.2891
   -15.2776 -13.2583 -12.8981 -12.8920 -12.8803 -12.8478 -12.8405 -12.7747
   -12.6937 -12.6622 -12.6560 -12.6079 -12.5483 -12.3083 -12.2278 -12.2159
   -12.1927 -12.1368 -12.1118 -11.6931 -11.5678 -11.5514 -11.5392 -11.5316
   -11.5200 -11.5106 -11.5079 -11.4645 -11.4539 -11.2717 -11.1909 -11.0130
   -10.8520 -10.8402 -10.8080 -10.7992 -10.6435 -10.2060 -10.1764 -10.1404
   -10.0723 -10.0234  -9.9578  -9.5424  -9.4741  -9.4496  -9.4273  -9.4214
    -9.4152  -9.3668  -9.1923  -9.0707  -9.0615  -9.0419  -9.0392  -9.0275
    -9.0239  -9.0120  -8.9975  -8.9741  -8.9675  -8.9611  -8.9539  -8.9500
    -8.9070  -8.8966  -8.8965  -8.8813  -8.8437  -8.8172  -8.8088  -8.7883
    -8.6253  -8.6133  -8.3399  -8.3318  -8.3311  -8.2806  -8.2336  -8.0059
    -7.9924  -7.8989  -7.8839  -7.8823  -7.8080  -7.8078  -7.6888  -7.6364
    -7.6320  -7.6035  -7.5873  -7.5766  -7.5462  -7.5375  -7.5048  -7.4912
    -7.4189  -7.4113  -7.4055  -7.3842  -7.3593  -7.3192  -7.2888  -7.1742
    -7.1533  -7.1227  -7.0835  -6.9453  -6.7865  -6.6685  -6.3182  -6.2986
    -6.2957  -6.2880  -6.2369  -6.1232  -6.1191  -6.1180  -6.1119  -6.1039
    -6.0980  -6.0968  -6.0735  -6.0559  -5.9551  -5.9447  -5.8714  -5.8277
    -5.5662  -5.4968  -5.4925  -5.4753  -5.4113  -5.3071  -5.2459  -5.2444
    -4.8408  -4.8149  -4.7996  -4.7937  -4.7335  -4.6959  -4.5839  -4.5478
    -4.5461  -4.5387  -4.4067  -3.6076  -0.6750  -0.2809  -0.0815  -0.0355
    -0.0329  -0.0321  -0.0230  -0.0168  -0.0019   0.0143   0.3574   0.3583
     0.3596   0.3645   0.3693   0.4066   0.5638   0.5644   0.5660   0.5684
     0.5760   0.5954   0.6362   0.6406   0.6470   0.6671   0.6721   0.7340
     0.8085   0.8288   0.8584   0.8690   0.9024   0.9914   1.0732   1.1496
     1.1526   1.1727   1.1786   1.2169   1.2543   1.2626   1.2631   1.2688
     1.2742   1.2765   1.3281   1.6090   1.6183

 ------ SPIN DOWN ----------


          k = 0.0000 0.0000 0.0000 ( 39925 PWs)   bands (ev):

   -22.0086 -21.8052 -21.6303 -21.6228 -21.6053 -21.5459 -21.4942 -21.0949
   -20.9028 -20.8852 -20.8830 -20.8020 -20.7907 -20.6744 -20.5512 -20.5435
   -20.5245 -20.3839 -20.3732 -19.8522 -19.6778 -19.6775 -19.6733 -19.6625
   -19.6598 -19.6505 -19.6448 -19.6113 -19.6013 -19.4510 -19.4467 -19.3206
   -19.2707 -19.2691 -19.2407 -19.0733 -19.0660 -18.8540 -18.8483 -18.8350
   -18.8249 -18.7634 -18.7425 -18.6967 -18.6721 -18.6691 -18.6527 -17.1357
   -14.9860 -13.2149 -12.8961 -12.8879 -12.8778 -12.8446 -12.8386 -12.7707
   -12.6917 -12.6582 -12.6523 -12.5925 -12.5399 -12.3030 -12.2259 -12.2129
   -12.1879 -12.1248 -12.1030 -11.6826 -11.5616 -11.5472 -11.5373 -11.5300
   -11.5183 -11.5066 -11.5062 -11.4549 -11.4428 -11.2387 -11.1660 -11.0082
   -10.8500 -10.8383 -10.7982 -10.7942 -10.6302 -10.2016 -10.1716 -10.1348
   -10.0620 -10.0088  -9.9418  -9.5397  -9.4657  -9.4453  -9.4228  -9.4191
    -9.4000  -9.3626  -9.1893  -9.0663  -9.0571  -9.0392  -9.0375  -9.0255
    -9.0198  -9.0092  -8.9958  -8.9723  -8.9643  -8.9503  -8.9465  -8.9407
    -8.9021  -8.8921  -8.8823  -8.8790  -8.8214  -8.8047  -8.7914  -8.7291
    -8.6134  -8.5819  -8.3385  -8.3298  -8.3294  -8.2609  -8.2251  -7.9907
    -7.9780  -7.8892  -7.8748  -7.8711  -7.7868  -7.7740  -7.6821  -7.6348
    -7.6289  -7.6015  -7.5860  -7.5757  -7.5449  -7.5355  -7.4988  -7.4885
    -7.4109  -7.3967  -7.3916  -7.3743  -7.3421  -7.2591  -7.2458  -7.1572
    -7.1513  -7.1217  -7.0651  -6.9182  -6.7652  -6.6406  -6.3150  -6.2970
    -6.2850  -6.2834  -6.2201  -6.1166  -6.1139  -6.1106  -6.1001  -6.0997
    -6.0892  -6.0809  -6.0470  -6.0423  -5.9249  -5.8913  -5.8346  -5.8001
    -5.5540  -5.4874  -5.4803  -5.4667  -5.3401  -5.2547  -5.1830  -5.1656
    -4.8263  -4.8053  -4.7868  -4.7835  -4.6962  -4.6824  -4.5787  -4.5389
    -4.5365  -4.5305  -4.2351  -2.9487  -0.6738  -0.2800  -0.0821  -0.0357
    -0.0330  -0.0320  -0.0231  -0.0150   0.0223   0.0633   0.3571   0.3581
     0.3594   0.3641   0.3702   0.4185   0.5633   0.5637   0.5656   0.5677
     0.5764   0.5995   0.6419   0.6470   0.6586   0.6842   0.6889   0.7390
     0.8144   0.8390   0.8632   0.8861   0.9477   0.9933   1.0875   1.1625
     1.1820   1.1828   1.2153   1.2541   1.2593   1.2625   1.2633   1.2692
     1.2779   1.2809   1.3302   1.6110   1.6230

     highest occupied, lowest unoccupied level (ev):    -3.6076   -2.9487

!    total energy              =   -1937.91836855 Ry
     Harris-Foulkes estimate   =   -1937.91836885 Ry
     estimated scf accuracy    <       0.00000082 Ry

     total magnetization       =     1.00 Bohr mag/cell
     absolute magnetization    =     1.25 Bohr mag/cell

     convergence has been achieved in  12 iterations

     Using ACE for calculation of exact exchange

     EXX grid:   318980 G-vectors     FFT dimensions: ( 108, 108, 125)

     negative rho (up, down):  3.300E+00 4.354E-03

     EXX: now go back to refine exchange calculation

     total cpu time spent up to now is     4719.1 secs

     Self-consistent Calculation

     iteration #  1     ecut=    25.73 Ry     beta= 0.70
     CG style diagonalization
     c_bands:  3 eigenvalues not converged
     c_bands:  3 eigenvalues not converged
     ethr =  1.20E-09,  avg # of iterations = 24.5

     negative rho (up, down):  3.390E+00 4.936E-03

     total cpu time spent up to now is     4856.2 secs

     total energy              =   -1722.80384904 Ry
     Harris-Foulkes estimate   =   -1722.89190122 Ry
     estimated scf accuracy    <       0.12140352 Ry

     total magnetization       =     1.00 Bohr mag/cell
     absolute magnetization    =     1.35 Bohr mag/cell

     iteration #  2     ecut=    25.73 Ry     beta= 0.70
     CG style diagonalization
     c_bands:  2 eigenvalues not converged
     ethr =  3.10E-05,  avg # of iterations =  4.9

     negative rho (up, down):  3.382E+00 4.730E-03

     total cpu time spent up to now is     4880.5 secs

     total energy              =   -1713.44550225 Ry
     Harris-Foulkes estimate   =   -1713.58940447 Ry
     estimated scf accuracy    <       0.40153432 Ry

     total magnetization       =     1.00 Bohr mag/cell
     absolute magnetization    =     1.35 Bohr mag/cell

     iteration #  3     ecut=    25.73 Ry     beta= 0.70
     CG style diagonalization
     ethr =  3.10E-05,  avg # of iterations =  3.8

     negative rho (up, down):  3.378E+00 4.538E-03

     total cpu time spent up to now is     4898.2 secs

     total energy              =   -1713.39548355 Ry
     Harris-Foulkes estimate   =   -1713.46878434 Ry
     estimated scf accuracy    <       0.09427637 Ry

     total magnetization       =     1.00 Bohr mag/cell
     absolute magnetization    =     1.35 Bohr mag/cell

     iteration #  4     ecut=    25.73 Ry     beta= 0.70
     CG style diagonalization
     ethr =  2.41E-05,  avg # of iterations =  3.8

     negative rho (up, down):  3.376E+00 4.676E-03

     total cpu time spent up to now is     4916.0 secs

     total energy              =   -1713.43147436 Ry
     Harris-Foulkes estimate   =   -1713.44809229 Ry
     estimated scf accuracy    <       0.04109029 Ry

     total magnetization       =     1.00 Bohr mag/cell
     absolute magnetization    =     1.36 Bohr mag/cell

     iteration #  5     ecut=    25.73 Ry     beta= 0.70
     CG style diagonalization
     ethr =  1.05E-05,  avg # of iterations =  3.1

     negative rho (up, down):  3.377E+00 4.679E-03

     total cpu time spent up to now is     4930.1 secs

     total energy              =   -1713.42974792 Ry
     Harris-Foulkes estimate   =   -1713.43449042 Ry
     estimated scf accuracy    <       0.00919352 Ry

     total magnetization       =     1.00 Bohr mag/cell
     absolute magnetization    =     1.36 Bohr mag/cell

     iteration #  6     ecut=    25.73 Ry     beta= 0.70
     CG style diagonalization
     c_bands:  2 eigenvalues not converged
     c_bands:  2 eigenvalues not converged
     ethr =  2.35E-06,  avg # of iterations =  4.0

     negative rho (up, down):  3.377E+00 4.676E-03

     total cpu time spent up to now is     4948.9 secs

     total energy              =   -1713.43162761 Ry
     Harris-Foulkes estimate   =   -1713.43169411 Ry
     estimated scf accuracy    <       0.00012218 Ry

     total magnetization       =     1.00 Bohr mag/cell
     absolute magnetization    =     1.36 Bohr mag/cell

     iteration #  7     ecut=    25.73 Ry     beta= 0.70
     CG style diagonalization
     c_bands:  1 eigenvalues not converged
     ethr =  3.12E-08,  avg # of iterations =  3.5

     negative rho (up, down):  3.376E+00 4.686E-03

     total cpu time spent up to now is     4965.3 secs

     total energy              =   -1713.43162532 Ry
     Harris-Foulkes estimate   =   -1713.43165081 Ry
     estimated scf accuracy    <       0.00001552 Ry

     total magnetization       =     1.00 Bohr mag/cell
     absolute magnetization    =     1.36 Bohr mag/cell

     iteration #  8     ecut=    25.73 Ry     beta= 0.70
     CG style diagonalization
     ethr =  3.97E-09,  avg # of iterations =  3.8

     negative rho (up, down):  3.376E+00 4.691E-03

     total cpu time spent up to now is     4983.3 secs

     total energy              =   -1713.43162244 Ry
     Harris-Foulkes estimate   =   -1713.43163015 Ry
     estimated scf accuracy    <       0.00000425 Ry

     total magnetization       =     1.00 Bohr mag/cell
     absolute magnetization    =     1.36 Bohr mag/cell

     iteration #  9     ecut=    25.73 Ry     beta= 0.70
     CG style diagonalization
     ethr =  1.09E-09,  avg # of iterations =  3.8

     negative rho (up, down):  3.376E+00 4.698E-03
 
     Magnetic moment per site:
     atom:    1    charge:    0.8293    magn:   -0.0000    constr:    0.0000
     atom:    2    charge:    0.8243    magn:    0.0002    constr:    0.0000
     atom:    3    charge:    0.8246    magn:    0.0005    constr:    0.0000
     atom:    4    charge:    0.8272    magn:   -0.0000    constr:    0.0000
     atom:    5    charge:    0.8296    magn:    0.0000    constr:    0.0000
     atom:    6    charge:    0.8290    magn:    0.0000    constr:    0.0000
     atom:    7    charge:    0.8294    magn:   -0.0000    constr:    0.0000
     atom:    8    charge:    0.8258    magn:   -0.0000    constr:    0.0000
     atom:    9    charge:    0.8283    magn:   -0.0004    constr:    0.0000
     atom:   10    charge:    0.8139    magn:    0.0025    constr:    0.0000
     atom:   11    charge:    0.8257    magn:    0.0003    constr:    0.0000
     atom:   12    charge:    0.8289    magn:    0.0001    constr:    0.0000
     atom:   13    charge:    0.8258    magn:   -0.0000    constr:    0.0000
     atom:   14    charge:    0.8290    magn:    0.0000    constr:    0.0000
     atom:   15    charge:    0.8282    magn:   -0.0001    constr:    0.0000
     atom:   16    charge:    0.8294    magn:   -0.0001    constr:    0.0000
     atom:   17    charge:    0.8400    magn:    0.0020    constr:    0.0000
     atom:   18    charge:    0.8300    magn:    0.0067    constr:    0.0000
     atom:   19    charge:    0.8387    magn:   -0.0004    constr:    0.0000
     atom:   20    charge:    0.8289    magn:    0.0001    constr:    0.0000
     atom:   21    charge:    0.8296    magn:    0.0000    constr:    0.0000
     atom:   22    charge:    0.8246    magn:    0.0000    constr:    0.0000
     atom:   23    charge:    0.8233    magn:    0.0002    constr:    0.0000
     atom:   24    charge:    0.8215    magn:   -0.0013    constr:    0.0000
     atom:   25    charge:    1.5885    magn:   -0.0382    constr:    0.0000
     atom:   26    charge:    0.8300    magn:    0.0068    constr:    0.0000
     atom:   27    charge:    0.8257    magn:    0.0003    constr:    0.0000
     atom:   28    charge:    0.8272    magn:   -0.0000    constr:    0.0000
     atom:   29    charge:    0.8243    magn:    0.0000    constr:    0.0000
     atom:   30    charge:    0.8252    magn:    0.0000    constr:    0.0000
     atom:   31    charge:    0.8254    magn:   -0.0004    constr:    0.0000
     atom:   32    charge:    0.8215    magn:   -0.0013    constr:    0.0000
     atom:   33    charge:    0.8399    magn:    0.0021    constr:    0.0000
     atom:   34    charge:    0.8139    magn:    0.0025    constr:    0.0000
     atom:   35    charge:    0.8246    magn:    0.0005    constr:    0.0000
     atom:   36    charge:    0.8230    magn:    0.0002    constr:    0.0000
     atom:   37    charge:    0.8250    magn:    0.0000    constr:    0.0000
     atom:   38    charge:    0.8252    magn:    0.0000    constr:    0.0000
     atom:   39    charge:    0.8233    magn:    0.0002    constr:    0.0000
     atom:   40    charge:    0.8294    magn:   -0.0001    constr:    0.0000
     atom:   41    charge:    0.8283    magn:   -0.0004    constr:    0.0000
     atom:   42    charge:    0.8243    magn:    0.0002    constr:    0.0000
     atom:   43    charge:    0.8218    magn:   -0.0000    constr:    0.0000
     atom:   44    charge:    0.8230    magn:    0.0002    constr:    0.0000
     atom:   45    charge:    0.8243    magn:    0.0000    constr:    0.0000
     atom:   46    charge:    0.8246    magn:    0.0000    constr:    0.0000
     atom:   47    charge:    0.8282    magn:   -0.0001    constr:    0.0000
     atom:   48    charge:    0.8258    magn:   -0.0000    constr:    0.0000
     atom:   49    charge:    0.8293    magn:   -0.0000    constr:    0.0000
     atom:   50    charge:    2.7358    magn:    0.0004    constr:    0.0000
     atom:   51    charge:    2.7290    magn:   -0.0002    constr:    0.0000
     atom:   52    charge:    2.7253    magn:    0.0023    constr:    0.0000
     atom:   53    charge:    2.7308    magn:   -0.0001    constr:    0.0000
     atom:   54    charge:    2.7329    magn:    0.0001    constr:    0.0000
     atom:   55    charge:    2.7321    magn:   -0.0000    constr:    0.0000
     atom:   56    charge:    2.7271    magn:   -0.0001    constr:    0.0000
     atom:   57    charge:    2.7296    magn:    0.0002    constr:    0.0000
     atom:   58    charge:    2.7273    magn:    0.0034    constr:    0.0000
     atom:   59    charge:    2.7260    magn:    0.0064    constr:    0.0000
     atom:   60    charge:    2.7206    magn:    0.0116    constr:    0.0000
     atom:   61    charge:    2.7316    magn:    0.0009    constr:    0.0000
     atom:   62    charge:    2.7265    magn:   -0.0001    constr:    0.0000
     atom:   63    charge:    2.7321    magn:   -0.0000    constr:    0.0000
     atom:   64    charge:    2.7381    magn:   -0.0000    constr:    0.0000
     atom:   65    charge:    2.7296    magn:    0.0002    constr:    0.0000
     atom:   66    charge:    2.7322    magn:    0.0156    constr:    0.0000
     atom:   67    charge:    1.6222    magn:    0.1293    constr:    0.0000
     atom:   68    charge:    2.7477    magn:   -0.0027    constr:    0.0000
     atom:   69    charge:    2.7317    magn:    0.0009    constr:    0.0000
     atom:   70    charge:    2.7329    magn:    0.0001    constr:    0.0000
     atom:   71    charge:    2.7296    magn:    0.0000    constr:    0.0000
     atom:   72    charge:    2.7269    magn:    0.0000    constr:    0.0000
     atom:   73    charge:    2.7239    magn:    0.0009    constr:    0.0000
     atom:   74    charge:    2.7072    magn:   -0.0043    constr:    0.0000
     atom:   75    charge:    1.6222    magn:    0.1290    constr:    0.0000
     atom:   76    charge:    2.7206    magn:    0.0116    constr:    0.0000
     atom:   77    charge:    2.7307    magn:   -0.0000    constr:    0.0000
     atom:   78    charge:    2.7346    magn:   -0.0001    constr:    0.0000
     atom:   79    charge:    2.7262    magn:   -0.0000    constr:    0.0000
     atom:   80    charge:    2.7375    magn:   -0.0001    constr:    0.0000
     atom:   81    charge:    2.7239    magn:    0.0009    constr:    0.0000
     atom:   82    charge:    2.7322    magn:    0.0156    constr:    0.0000
     atom:   83    charge:    2.7260    magn:    0.0064    constr:    0.0000
     atom:   84    charge:    2.7253    magn:    0.0022    constr:    0.0000
     atom:   85    charge:    2.7278    magn:    0.0002    constr:    0.0000
     atom:   86    charge:    2.7225    magn:   -0.0001    constr:    0.0000
     atom:   87    charge:    2.7262    magn:   -0.0001    constr:    0.0000
     atom:   88    charge:    2.7269    magn:    0.0001    constr:    0.0000
     atom:   89    charge:    2.7296    magn:    0.0003    constr:    0.0000
     atom:   90    charge:    2.7272    magn:    0.0034    constr:    0.0000
     atom:   91    charge:    2.7290    magn:   -0.0002    constr:    0.0000
     atom:   92    charge:    2.7364    magn:   -0.0001    constr:    0.0000
     atom:   93    charge:    2.7278    magn:    0.0002    constr:    0.0000
     atom:   94    charge:    2.7346    magn:    0.0000    constr:    0.0000
     atom:   95    charge:    2.7296    magn:   -0.0000    constr:    0.0000
     atom:   96    charge:    2.7381    magn:   -0.0000    constr:    0.0000
     atom:   97    charge:    2.7296    magn:    0.0003    constr:    0.0000
     atom:   98    charge:    2.7357    magn:    0.0003    constr:    0.0000

     total cpu time spent up to now is     5000.9 secs

     End of self-consistent calculation

 ------ SPIN UP ------------


          k = 0.0000 0.0000 0.0000 ( 39925 PWs)   bands (ev):

   -25.2621 -25.0288 -24.8359 -24.8270 -24.8071 -24.7555 -24.7007 -24.2408
   -24.0273 -24.0096 -24.0095 -23.9191 -23.9044 -23.7674 -23.6390 -23.6280
   -23.6127 -23.4689 -23.4534 -22.8617 -22.6571 -22.6523 -22.6470 -22.6374
   -22.6353 -22.6316 -22.6271 -22.6020 -22.5836 -22.4092 -22.4023 -22.2567
   -22.2009 -22.1994 -22.1769 -21.9910 -21.9852 -21.7401 -21.7247 -21.7156
   -21.7032 -21.6338 -21.6206 -21.5539 -21.5320 -21.5299 -21.5182 -20.1174
   -17.9675 -15.5635 -15.1423 -15.1392 -15.1261 -15.0896 -15.0800 -15.0032
   -14.9162 -14.8821 -14.8812 -14.8306 -14.7712 -14.4840 -14.3996 -14.3908
   -14.3597 -14.3088 -14.2834 -13.7974 -13.6663 -13.6466 -13.6249 -13.6149
   -13.6055 -13.5981 -13.5945 -13.5604 -13.5383 -13.3487 -13.2744 -13.0435
   -12.8529 -12.8397 -12.8161 -12.8037 -12.6447 -12.1414 -12.1102 -12.0759
   -11.9969 -11.9500 -11.8833 -11.4132 -11.3442 -11.3163 -11.3136 -11.2861
   -11.2788 -11.2174 -11.0159 -10.8918 -10.8828 -10.8499 -10.8440 -10.8338
   -10.8317 -10.8191 -10.8042 -10.8030 -10.7768 -10.7726 -10.7648 -10.7620
   -10.7338 -10.7231 -10.7063 -10.7063 -10.6705 -10.6222 -10.6215 -10.6077
   -10.4105 -10.4094 -10.0890 -10.0795 -10.0789 -10.0408  -9.9873  -9.7328
    -9.6963  -9.5847  -9.5697  -9.5687  -9.4891  -9.4880  -9.3568  -9.2972
    -9.2957  -9.2588  -9.2405  -9.2314  -9.2049  -9.1954  -9.1531  -9.1333
    -9.0669  -9.0276  -9.0197  -9.0185  -9.0025  -8.9314  -8.8977  -8.8004
    -8.7535  -8.7197  -8.6965  -8.5456  -8.3713  -8.2542  -7.8423  -7.8179
    -7.8125  -7.7682  -7.7429  -7.5465  -7.5439  -7.5398  -7.5330  -7.5236
    -7.5204  -7.5184  -7.5020  -7.4797  -7.4416  -7.3619  -7.3271  -7.2666
    -6.9193  -6.8412  -6.8384  -6.8214  -6.7499  -6.7265  -6.7058  -6.6293
    -6.1010  -6.0707  -6.0564  -6.0506  -5.9786  -5.9312  -5.7913  -5.7579
    -5.7545  -5.7468  -5.5909  -4.6562  -0.2875   0.0497   0.2759   0.3566
     0.3573   0.3590   0.3633   0.3677   0.3837   0.6632   0.6892   0.6894
     0.6916   0.6951   0.6985   0.8949   0.9217   0.9225   0.9247   0.9280
     0.9340   0.9524   1.3616   1.6397   1.6452   1.6495   1.6536   1.6581
     1.6584   1.6619   1.6640   1.6656   1.6658   1.6669   1.7417   1.7638
     1.8711   1.8892   1.9223   1.9286   1.9349   1.9730   1.9818   1.9850
     1.9864   1.9922   1.9972   1.9998   2.1955

 ------ SPIN DOWN ----------


          k = 0.0000 0.0000 0.0000 ( 39925 PWs)   bands (ev):

   -25.2546 -25.0243 -24.8326 -24.8249 -24.8059 -24.7435 -24.6891 -24.2374
   -24.0216 -24.0053 -23.9995 -23.9117 -23.8984 -23.7660 -23.6296 -23.6197
   -23.6077 -23.4509 -23.4391 -22.8515 -22.6507 -22.6499 -22.6440 -22.6329
   -22.6299 -22.6220 -22.6210 -22.5857 -22.5770 -22.4006 -22.3957 -22.2498
   -22.1941 -22.1938 -22.1702 -21.9764 -21.9713 -21.7300 -21.7195 -21.7074
   -21.6976 -21.6281 -21.6095 -21.5514 -21.5271 -21.5249 -21.5121 -19.8973
   -17.5041 -15.5033 -15.1401 -15.1340 -15.1231 -15.0846 -15.0773 -14.9985
   -14.9140 -14.8771 -14.8762 -14.8095 -14.7599 -14.4773 -14.3973 -14.3875
   -14.3537 -14.2918 -14.2718 -13.7832 -13.6594 -13.6413 -13.6229 -13.6134
   -13.6033 -13.5943 -13.5931 -13.5486 -13.5235 -13.3020 -13.2395 -13.0377
   -12.8506 -12.8375 -12.8047 -12.7974 -12.6279 -12.1367 -12.1050 -12.0690
   -11.9830 -11.9309 -11.8624 -11.4103 -11.3336 -11.3082 -11.2894 -11.2804
   -11.2759 -11.2120 -11.0131 -10.8860 -10.8780 -10.8469 -10.8422 -10.8314
   -10.8273 -10.8162 -10.8011 -10.7751 -10.7697 -10.7660 -10.7611 -10.7574
   -10.7248 -10.7157 -10.7026 -10.6895 -10.6277 -10.6070 -10.5849 -10.5124
   -10.3939 -10.3688 -10.0874 -10.0776 -10.0761 -10.0175  -9.9769  -9.7130
    -9.6690  -9.5682  -9.5553  -9.5424  -9.4457  -9.4251  -9.3487  -9.2958
    -9.2917  -9.2563  -9.2392  -9.2304  -9.2036  -9.1934  -9.1503  -9.1231
    -9.0573  -9.0002  -8.9954  -8.9947  -8.9847  -8.8145  -8.8121  -8.7767
    -8.7514  -8.7188  -8.6813  -8.5116  -8.3460  -8.2181  -7.8389  -7.8162
    -7.8091  -7.7508  -7.7151  -7.5352  -7.5271  -7.5260  -7.5162  -7.5119
    -7.5013  -7.4855  -7.4479  -7.4442  -7.4160  -7.2896  -7.2421  -7.1893
    -6.8924  -6.8198  -6.8153  -6.7954  -6.6401  -6.6356  -6.6048  -6.5234
    -6.0647  -6.0467  -6.0291  -6.0262  -5.9062  -5.9038  -5.7818  -5.7391
    -5.7343  -5.7242  -5.1960  -2.3113  -0.2872   0.0500   0.2760   0.3563
     0.3571   0.3588   0.3630   0.3682   0.3873   0.6790   0.6891   0.6895
     0.6919   0.6952   0.6994   0.9213   0.9222   0.9244   0.9276   0.9348
     0.9576   1.0600   1.3683   1.6468   1.6532   1.6534   1.6577   1.6581
     1.6617   1.6663   1.6674   1.6681   1.6952   1.6975   1.7430   1.7716
     1.8780   1.9038   1.9277   1.9563   1.9714   1.9749   1.9840   1.9849
     1.9891   1.9922   1.9944   1.9987   2.2270

     highest occupied, lowest unoccupied level (ev):    -4.6562   -2.3113

!    total energy              =   -1713.43162558 Ry
     Harris-Foulkes estimate   =   -1713.43162311 Ry
     estimated scf accuracy    <       0.00000031 Ry

     total magnetization       =     1.00 Bohr mag/cell
     absolute magnetization    =     1.36 Bohr mag/cell

     convergence has been achieved in   9 iterations

     Using ACE for calculation of exact exchange

     total energy              =   -1713.47479011 Ry
     Harris-Foulkes estimate   =   -1713.47478764 Ry
     est. exchange err (dexx)  =       0.04316452 Ry
     - averaged Fock potential =     193.71914078 Ry
     + Fock energy (ACE)       =     -96.94772677 Ry

     EXX: now go back to refine exchange calculation

     total cpu time spent up to now is     9429.1 secs

     Self-consistent Calculation

     iteration #  1     ecut=    25.73 Ry     beta= 0.70
     CG style diagonalization
     c_bands:  1 eigenvalues not converged
     ethr =  1.09E-09,  avg # of iterations = 15.3

     negative rho (up, down):  3.386E+00 4.752E-03

     total cpu time spent up to now is     9514.9 secs

     total energy              =   -1713.48126272 Ry
     Harris-Foulkes estimate   =   -1713.48192338 Ry
     estimated scf accuracy    <       0.00151382 Ry

     total magnetization       =     1.00 Bohr mag/cell
     absolute magnetization    =     1.39 Bohr mag/cell

     iteration #  2     ecut=    25.73 Ry     beta= 0.70
     CG style diagonalization
     ethr =  3.87E-07,  avg # of iterations =  3.8

     negative rho (up, down):  3.387E+00 4.785E-03

     total cpu time spent up to now is     9532.6 secs

     total energy              =   -1713.48147269 Ry
     Harris-Foulkes estimate   =   -1713.48152102 Ry
     estimated scf accuracy    <       0.00013249 Ry

     total magnetization       =     1.00 Bohr mag/cell
     absolute magnetization    =     1.40 Bohr mag/cell

     iteration #  3     ecut=    25.73 Ry     beta= 0.70
     CG style diagonalization
     ethr =  3.39E-08,  avg # of iterations =  3.8

     negative rho (up, down):  3.388E+00 4.783E-03

     total cpu time spent up to now is     9550.3 secs

     total energy              =   -1713.48151597 Ry
     Harris-Foulkes estimate   =   -1713.48151352 Ry
     estimated scf accuracy    <       0.00002182 Ry

     total magnetization       =     1.00 Bohr mag/cell
     absolute magnetization    =     1.40 Bohr mag/cell

     iteration #  4     ecut=    25.73 Ry     beta= 0.70
     CG style diagonalization
     ethr =  5.58E-09,  avg # of iterations =  3.8

     negative rho (up, down):  3.388E+00 4.794E-03
 
     Magnetic moment per site:
     atom:    1    charge:    0.8262    magn:   -0.0000    constr:    0.0000
     atom:    2    charge:    0.8212    magn:    0.0002    constr:    0.0000
     atom:    3    charge:    0.8215    magn:    0.0004    constr:    0.0000
     atom:    4    charge:    0.8240    magn:   -0.0000    constr:    0.0000
     atom:    5    charge:    0.8265    magn:    0.0000    constr:    0.0000
     atom:    6    charge:    0.8259    magn:    0.0000    constr:    0.0000
     atom:    7    charge:    0.8262    magn:   -0.0000    constr:    0.0000
     atom:    8    charge:    0.8227    magn:   -0.0000    constr:    0.0000
     atom:    9    charge:    0.8252    magn:   -0.0004    constr:    0.0000
     atom:   10    charge:    0.8107    magn:    0.0023    constr:    0.0000
     atom:   11    charge:    0.8225    magn:    0.0003    constr:    0.0000
     atom:   12    charge:    0.8257    magn:    0.0000    constr:    0.0000
     atom:   13    charge:    0.8226    magn:   -0.0000    constr:    0.0000
     atom:   14    charge:    0.8259    magn:    0.0000    constr:    0.0000
     atom:   15    charge:    0.8251    magn:   -0.0001    constr:    0.0000
     atom:   16    charge:    0.8262    magn:   -0.0001    constr:    0.0000
     atom:   17    charge:    0.8372    magn:    0.0018    constr:    0.0000
     atom:   18    charge:    0.8272    magn:    0.0063    constr:    0.0000
     atom:   19    charge:    0.8356    magn:   -0.0004    constr:    0.0000
     atom:   20    charge:    0.8257    magn:    0.0000    constr:    0.0000
     atom:   21    charge:    0.8265    magn:    0.0000    constr:    0.0000
     atom:   22    charge:    0.8214    magn:    0.0000    constr:    0.0000
     atom:   23    charge:    0.8201    magn:    0.0001    constr:    0.0000
     atom:   24    charge:    0.8184    magn:   -0.0014    constr:    0.0000
     atom:   25    charge:    1.5850    magn:   -0.0457    constr:    0.0000
     atom:   26    charge:    0.8272    magn:    0.0064    constr:    0.0000
     atom:   27    charge:    0.8225    magn:    0.0003    constr:    0.0000
     atom:   28    charge:    0.8240    magn:   -0.0000    constr:    0.0000
     atom:   29    charge:    0.8211    magn:    0.0000    constr:    0.0000
     atom:   30    charge:    0.8221    magn:    0.0000    constr:    0.0000
     atom:   31    charge:    0.8222    magn:   -0.0004    constr:    0.0000
     atom:   32    charge:    0.8184    magn:   -0.0014    constr:    0.0000
     atom:   33    charge:    0.8372    magn:    0.0018    constr:    0.0000
     atom:   34    charge:    0.8107    magn:    0.0023    constr:    0.0000
     atom:   35    charge:    0.8215    magn:    0.0005    constr:    0.0000
     atom:   36    charge:    0.8199    magn:    0.0002    constr:    0.0000
     atom:   37    charge:    0.8218    magn:   -0.0000    constr:    0.0000
     atom:   38    charge:    0.8221    magn:    0.0000    constr:    0.0000
     atom:   39    charge:    0.8201    magn:    0.0001    constr:    0.0000
     atom:   40    charge:    0.8262    magn:   -0.0001    constr:    0.0000
     atom:   41    charge:    0.8252    magn:   -0.0004    constr:    0.0000
     atom:   42    charge:    0.8212    magn:    0.0002    constr:    0.0000
     atom:   43    charge:    0.8186    magn:   -0.0000    constr:    0.0000
     atom:   44    charge:    0.8199    magn:    0.0002    constr:    0.0000
     atom:   45    charge:    0.8211    magn:    0.0000    constr:    0.0000
     atom:   46    charge:    0.8214    magn:    0.0000    constr:    0.0000
     atom:   47    charge:    0.8251    magn:   -0.0001    constr:    0.0000
     atom:   48    charge:    0.8227    magn:   -0.0000    constr:    0.0000
     atom:   49    charge:    0.8262    magn:   -0.0000    constr:    0.0000
     atom:   50    charge:    2.7347    magn:    0.0003    constr:    0.0000
     atom:   51    charge:    2.7280    magn:   -0.0001    constr:    0.0000
     atom:   52    charge:    2.7243    magn:    0.0019    constr:    0.0000
     atom:   53    charge:    2.7297    magn:   -0.0000    constr:    0.0000
     atom:   54    charge:    2.7319    magn:    0.0001    constr:    0.0000
     atom:   55    charge:    2.7310    magn:    0.0000    constr:    0.0000
     atom:   56    charge:    2.7260    magn:   -0.0001    constr:    0.0000
     atom:   57    charge:    2.7286    magn:    0.0002    constr:    0.0000
     atom:   58    charge:    2.7262    magn:    0.0031    constr:    0.0000
     atom:   59    charge:    2.7249    magn:    0.0064    constr:    0.0000
     atom:   60    charge:    2.7194    magn:    0.0110    constr:    0.0000
     atom:   61    charge:    2.7306    magn:    0.0008    constr:    0.0000
     atom:   62    charge:    2.7255    magn:   -0.0001    constr:    0.0000
     atom:   63    charge:    2.7310    magn:   -0.0000    constr:    0.0000
     atom:   64    charge:    2.7371    magn:    0.0000    constr:    0.0000
     atom:   65    charge:    2.7285    magn:    0.0002    constr:    0.0000
     atom:   66    charge:    2.7310    magn:    0.0151    constr:    0.0000
     atom:   67    charge:    1.6211    magn:    0.1347    constr:    0.0000
     atom:   68    charge:    2.7467    magn:   -0.0024    constr:    0.0000
     atom:   69    charge:    2.7306    magn:    0.0008    constr:    0.0000
     atom:   70    charge:    2.7319    magn:    0.0001    constr:    0.0000
     atom:   71    charge:    2.7286    magn:    0.0000    constr:    0.0000
     atom:   72    charge:    2.7259    magn:    0.0001    constr:    0.0000
     atom:   73    charge:    2.7229    magn:    0.0007    constr:    0.0000
     atom:   74    charge:    2.7060    magn:   -0.0050    constr:    0.0000
     atom:   75    charge:    1.6211    magn:    0.1345    constr:    0.0000
     atom:   76    charge:    2.7194    magn:    0.0110    constr:    0.0000
     atom:   77    charge:    2.7297    magn:   -0.0000    constr:    0.0000
     atom:   78    charge:    2.7335    magn:   -0.0000    constr:    0.0000
     atom:   79    charge:    2.7251    magn:   -0.0001    constr:    0.0000
     atom:   80    charge:    2.7364    magn:   -0.0001    constr:    0.0000
     atom:   81    charge:    2.7229    magn:    0.0007    constr:    0.0000
     atom:   82    charge:    2.7310    magn:    0.0151    constr:    0.0000
     atom:   83    charge:    2.7249    magn:    0.0064    constr:    0.0000
     atom:   84    charge:    2.7243    magn:    0.0019    constr:    0.0000
     atom:   85    charge:    2.7268    magn:    0.0002    constr:    0.0000
     atom:   86    charge:    2.7215    magn:   -0.0001    constr:    0.0000
     atom:   87    charge:    2.7251    magn:   -0.0001    constr:    0.0000
     atom:   88    charge:    2.7259    magn:    0.0001    constr:    0.0000
     atom:   89    charge:    2.7285    magn:    0.0003    constr:    0.0000
     atom:   90    charge:    2.7262    magn:    0.0031    constr:    0.0000
     atom:   91    charge:    2.7279    magn:   -0.0001    constr:    0.0000
     atom:   92    charge:    2.7354    magn:   -0.0000    constr:    0.0000
     atom:   93    charge:    2.7268    magn:    0.0002    constr:    0.0000
     atom:   94    charge:    2.7335    magn:    0.0000    constr:    0.0000
     atom:   95    charge:    2.7286    magn:   -0.0000    constr:    0.0000
     atom:   96    charge:    2.7371    magn:    0.0000    constr:    0.0000
     atom:   97    charge:    2.7286    magn:    0.0002    constr:    0.0000
     atom:   98    charge:    2.7347    magn:    0.0003    constr:    0.0000

     total cpu time spent up to now is     9567.9 secs

     End of self-consistent calculation

 ------ SPIN UP ------------


          k = 0.0000 0.0000 0.0000 ( 39925 PWs)   bands (ev):

   -25.2559 -25.0221 -24.8299 -24.8216 -24.8015 -24.7499 -24.6956 -24.2349
   -24.0218 -24.0045 -24.0038 -23.9140 -23.8996 -23.7624 -23.6335 -23.6224
   -23.6088 -23.4645 -23.4494 -22.8566 -22.6525 -22.6479 -22.6423 -22.6328
   -22.6309 -22.6270 -22.6227 -22.5975 -22.5802 -22.4054 -22.3985 -22.2523
   -22.1968 -22.1952 -22.1740 -21.9868 -21.9820 -21.7364 -21.7207 -21.7120
   -21.6998 -21.6303 -21.6175 -21.5502 -21.5286 -21.5267 -21.5153 -20.1236
   -17.9922 -15.5660 -15.1415 -15.1385 -15.1255 -15.0892 -15.0795 -15.0024
   -14.9147 -14.8809 -14.8804 -14.8298 -14.7715 -14.4879 -14.4051 -14.3965
   -14.3651 -14.3146 -14.2890 -13.8005 -13.6688 -13.6486 -13.6269 -13.6168
   -13.6077 -13.6005 -13.5969 -13.5640 -13.5409 -13.3526 -13.2793 -13.0455
   -12.8533 -12.8399 -12.8178 -12.8051 -12.6463 -12.1458 -12.1143 -12.0805
   -12.0016 -11.9553 -11.8894 -11.4235 -11.3549 -11.3242 -11.3157 -11.2966
   -11.2890 -11.2280 -11.0264 -10.9020 -10.8938 -10.8592 -10.8524 -10.8434
   -10.8411 -10.8291 -10.8138 -10.8015 -10.7876 -10.7834 -10.7761 -10.7733
   -10.7331 -10.7229 -10.7167 -10.7061 -10.6705 -10.6355 -10.6233 -10.6190
   -10.4241 -10.4235 -10.1069 -10.0978 -10.0971 -10.0595 -10.0065  -9.7517
    -9.6943  -9.5855  -9.5709  -9.5706  -9.4923  -9.4909  -9.3738  -9.3129
    -9.3120  -9.2754  -9.2570  -9.2485  -9.2234  -9.2142  -9.1726  -9.1351
    -9.0854  -9.0390  -9.0306  -9.0225  -9.0074  -8.9373  -8.9038  -8.8187
    -8.7679  -8.7345  -8.7125  -8.5623  -8.3900  -8.2759  -7.8647  -7.8400
    -7.8349  -7.7920  -7.7481  -7.5575  -7.5547  -7.5506  -7.5439  -7.5349
    -7.5318  -7.5296  -7.5140  -7.4929  -7.4667  -7.3759  -7.3532  -7.2820
    -6.9359  -6.8595  -6.8573  -6.8415  -6.7702  -6.7574  -6.7361  -6.6520
    -6.1284  -6.0989  -6.0852  -6.0795  -6.0092  -5.9622  -5.8234  -5.7914
    -5.7874  -5.7799  -5.6284  -4.7231  -0.2859   0.0492   0.2784   0.3581
     0.3587   0.3605   0.3644   0.3686   0.3838   0.6712   0.6886   0.6887
     0.6910   0.6943   0.6974   0.9240   0.9246   0.9269   0.9299   0.9357
     0.9366   0.9535   1.3622   1.6543   1.6586   1.6589   1.6623   1.6659
     1.6660   1.6780   1.6832   1.6872   1.7002   1.7029   1.7450   1.8039
     1.9155   1.9325   1.9630   1.9676   1.9696   1.9716   1.9762   1.9776
     1.9809   1.9831   1.9871   1.9974   2.2191

 ------ SPIN DOWN ----------


          k = 0.0000 0.0000 0.0000 ( 39925 PWs)   bands (ev):

   -25.2504 -25.0215 -24.8271 -24.8198 -24.8007 -24.7391 -24.6854 -24.2342
   -24.0169 -24.0010 -23.9949 -23.9071 -23.8941 -23.7617 -23.6249 -23.6151
   -23.6043 -23.4472 -23.4359 -22.8485 -22.6467 -22.6458 -22.6399 -22.6289
   -22.6259 -22.6181 -22.6177 -22.5826 -22.5743 -22.3975 -22.3923 -22.2464
   -22.1908 -22.1905 -22.1680 -21.9731 -21.9686 -21.7271 -21.7165 -21.7048
   -21.6949 -21.6250 -21.6073 -21.5482 -21.5243 -21.5223 -21.5100 -19.9007
   -17.4947 -15.5055 -15.1398 -15.1337 -15.1229 -15.0842 -15.0769 -14.9980
   -14.9129 -14.8760 -14.8758 -14.8082 -14.7602 -14.4817 -14.4031 -14.3936
   -14.3592 -14.2968 -14.2773 -13.7863 -13.6630 -13.6438 -13.6253 -13.6156
   -13.6058 -13.5972 -13.5959 -13.5527 -13.5261 -13.3036 -13.2422 -13.0406
   -12.8512 -12.8380 -12.8069 -12.7990 -12.6297 -12.1419 -12.1098 -12.0740
   -11.9875 -11.9356 -11.8675 -11.4213 -11.3447 -11.3191 -11.2909 -11.2899
   -11.2864 -11.2227 -11.0243 -10.8964 -10.8896 -10.8565 -10.8510 -10.8414
   -10.8373 -10.8265 -10.8121 -10.7863 -10.7809 -10.7727 -10.7696 -10.7690
   -10.7254 -10.7168 -10.7034 -10.6999 -10.6304 -10.6202 -10.5954 -10.5145
   -10.4074 -10.3801 -10.1055 -10.0960 -10.0946 -10.0357  -9.9962  -9.7312
    -9.6770  -9.5715  -9.5593  -9.5472  -9.4489  -9.4278  -9.3660  -9.3119
    -9.3081  -9.2731  -9.2558  -9.2476  -9.2224  -9.2126  -9.1702  -9.1304
    -9.0759  -9.0143  -9.0060  -9.0014  -8.9914  -8.8181  -8.8170  -8.7941
    -8.7662  -8.7339  -8.6981  -8.5270  -8.3633  -8.2381  -7.8614  -7.8384
    -7.8317  -7.7747  -7.7360  -7.5480  -7.5404  -7.5393  -7.5292  -7.5258
    -7.5153  -7.5006  -7.4661  -7.4641  -7.4397  -7.3136  -7.2562  -7.2053
    -6.9148  -6.8432  -6.8374  -6.8197  -6.6669  -6.6623  -6.6248  -6.5456
    -6.0980  -6.0804  -6.0620  -6.0589  -5.9391  -5.9358  -5.8170  -5.7757
    -5.7709  -5.7618  -5.2205  -2.2121  -0.2856   0.0492   0.2786   0.3578
     0.3585   0.3602   0.3641   0.3691   0.3874   0.6781   0.6885   0.6888
     0.6911   0.6942   0.6984   0.9235   0.9243   0.9266   0.9294   0.9365
     0.9587   1.0743   1.3694   1.6539   1.6582   1.6586   1.6621   1.6676
     1.6683   1.6823   1.6897   1.7020   1.7310   1.7340   1.7462   1.8091
     1.9200   1.9454   1.9658   1.9684   1.9705   1.9736   1.9758   1.9794
     1.9815   1.9846   1.9858   1.9908   1.9914

     highest occupied, lowest unoccupied level (ev):    -4.7231   -2.2121

!    total energy              =   -1713.48152202 Ry
     Harris-Foulkes estimate   =   -1713.48152115 Ry
     estimated scf accuracy    <       0.00000084 Ry

     total magnetization       =     1.00 Bohr mag/cell
[...]
   -21.6894 -21.6195 -21.6019 -21.5426 -21.5188 -21.5167 -21.5046 -19.8914
   -17.4764 -15.4998 -15.1353 -15.1290 -15.1185 -15.0795 -15.0722 -14.9933
   -14.9079 -14.8710 -14.8710 -14.8029 -14.7557 -14.4781 -14.3999 -14.3906
   -14.3559 -14.2929 -14.2737 -13.7818 -13.6587 -13.6393 -13.6211 -13.6113
   -13.6017 -13.5932 -13.5918 -13.5487 -13.5215 -13.2975 -13.2373 -13.0366
   -12.8464 -12.8332 -12.8023 -12.7943 -12.6251 -12.1376 -12.1058 -12.0699
   -11.9832 -11.9309 -11.8630 -11.4184 -11.3421 -11.3163 -11.2882 -11.2866
   -11.2838 -11.2201 -11.0212 -10.8931 -10.8872 -10.8534 -10.8478 -10.8385
   -10.8344 -10.8237 -10.8095 -10.7839 -10.7783 -10.7703 -10.7681 -10.7665
   -10.7222 -10.7137 -10.7001 -10.6965 -10.6281 -10.6176 -10.5922 -10.5119
   -10.4050 -10.3765 -10.1044 -10.0950 -10.0935 -10.0340  -9.9952  -9.7297
    -9.6779  -9.5693  -9.5572  -9.5462  -9.4465  -9.4252  -9.3641  -9.3102
    -9.3062  -9.2713  -9.2541  -9.2461  -9.2213  -9.2115  -9.1693  -9.1304
    -9.0746  -9.0128  -9.0055  -9.0010  -8.9899  -8.8162  -8.8153  -8.7915
    -8.7638  -8.7316  -8.6955  -8.5241  -8.3607  -8.2360  -7.8605  -7.8374
    -7.8308  -7.7736  -7.7421  -7.5493  -7.5420  -7.5410  -7.5306  -7.5276
    -7.5173  -7.5033  -7.4688  -7.4689  -7.4381  -7.3121  -7.2582  -7.2071
    -6.9199  -6.8480  -6.8419  -6.8247  -6.6641  -6.6599  -6.6292  -6.5498
    -6.1068  -6.0890  -6.0703  -6.0670  -5.9476  -5.9437  -5.8260  -5.7851
    -5.7804  -5.7716  -5.2253  -2.1595  -0.2855   0.0487   0.2789   0.3580
     0.3586   0.3602   0.3640   0.3690   0.3872   0.6769   0.6882   0.6885
     0.6906   0.6936   0.6979   0.9239   0.9246   0.9269   0.9296   0.9366
     0.9588   1.0740   1.3696   1.6539   1.6581   1.6586   1.6620   1.6675
     1.6682   1.6956   1.7030   1.7151   1.7445   1.7475   1.7468   1.8224
     1.9351   1.9601   1.9672   1.9697   1.9714   1.9725   1.9776   1.9797
     1.9814   1.9842   1.9857   1.9907   1.9910

     highest occupied, lowest unoccupied level (ev):    -4.7565   -2.1595

!    total energy              =   -1713.48328777 Ry
     Harris-Foulkes estimate   =   -1713.48328424 Ry
     estimated scf accuracy    <       0.00000069 Ry

     total magnetization       =     1.00 Bohr mag/cell
     absolute magnetization    =     1.44 Bohr mag/cell

     convergence has been achieved in   1 iterations

     Using ACE for calculation of exact exchange

     total energy              =   -1713.48328939 Ry
     Harris-Foulkes estimate   =   -1713.48328586 Ry
     est. exchange err (dexx)  =       0.00000162 Ry
     - averaged Fock potential =     194.03038219 Ry
     + Fock energy (ACE)       =     -97.01608595 Ry

     EXX: now go back to refine exchange calculation

     total cpu time spent up to now is    27392.1 secs

     Self-consistent Calculation

     iteration #  1     ecut=    25.73 Ry     beta= 0.70
     CG style diagonalization
     c_bands:  1 eigenvalues not converged
     ethr =  4.13E-10,  avg # of iterations =  3.5

     negative rho (up, down):  3.391E+00 4.923E-03
 
     Magnetic moment per site:
     atom:    1    charge:    0.8256    magn:   -0.0000    constr:    0.0000
     atom:    2    charge:    0.8206    magn:    0.0002    constr:    0.0000
     atom:    3    charge:    0.8209    magn:    0.0004    constr:    0.0000
     atom:    4    charge:    0.8235    magn:   -0.0000    constr:    0.0000
     atom:    5    charge:    0.8259    magn:    0.0000    constr:    0.0000
     atom:    6    charge:    0.8253    magn:    0.0000    constr:    0.0000
     atom:    7    charge:    0.8257    magn:   -0.0000    constr:    0.0000
     atom:    8    charge:    0.8221    magn:    0.0000    constr:    0.0000
     atom:    9    charge:    0.8246    magn:   -0.0003    constr:    0.0000
     atom:   10    charge:    0.8102    magn:    0.0022    constr:    0.0000
     atom:   11    charge:    0.8220    magn:    0.0003    constr:    0.0000
     atom:   12    charge:    0.8252    magn:    0.0000    constr:    0.0000
     atom:   13    charge:    0.8221    magn:   -0.0000    constr:    0.0000
     atom:   14    charge:    0.8253    magn:    0.0000    constr:    0.0000
     atom:   15    charge:    0.8245    magn:   -0.0001    constr:    0.0000
     atom:   16    charge:    0.8257    magn:   -0.0001    constr:    0.0000
     atom:   17    charge:    0.8367    magn:    0.0015    constr:    0.0000
     atom:   18    charge:    0.8267    magn:    0.0059    constr:    0.0000
     atom:   19    charge:    0.8350    magn:   -0.0004    constr:    0.0000
     atom:   20    charge:    0.8252    magn:    0.0000    constr:    0.0000
     atom:   21    charge:    0.8259    magn:    0.0000    constr:    0.0000
     atom:   22    charge:    0.8209    magn:    0.0000    constr:    0.0000
     atom:   23    charge:    0.8196    magn:    0.0001    constr:    0.0000
     atom:   24    charge:    0.8178    magn:   -0.0015    constr:    0.0000
     atom:   25    charge:    1.5846    magn:   -0.0534    constr:    0.0000
     atom:   26    charge:    0.8267    magn:    0.0059    constr:    0.0000
     atom:   27    charge:    0.8220    magn:    0.0003    constr:    0.0000
     atom:   28    charge:    0.8235    magn:   -0.0000    constr:    0.0000
     atom:   29    charge:    0.8206    magn:    0.0000    constr:    0.0000
     atom:   30    charge:    0.8215    magn:   -0.0000    constr:    0.0000
     atom:   31    charge:    0.8216    magn:   -0.0004    constr:    0.0000
     atom:   32    charge:    0.8178    magn:   -0.0016    constr:    0.0000
     atom:   33    charge:    0.8367    magn:    0.0015    constr:    0.0000
     atom:   34    charge:    0.8102    magn:    0.0022    constr:    0.0000
     atom:   35    charge:    0.8209    magn:    0.0004    constr:    0.0000
     atom:   36    charge:    0.8193    magn:    0.0001    constr:    0.0000
     atom:   37    charge:    0.8213    magn:   -0.0000    constr:    0.0000
     atom:   38    charge:    0.8215    magn:   -0.0000    constr:    0.0000
     atom:   39    charge:    0.8196    magn:    0.0001    constr:    0.0000
     atom:   40    charge:    0.8257    magn:   -0.0001    constr:    0.0000
     atom:   41    charge:    0.8246    magn:   -0.0003    constr:    0.0000
     atom:   42    charge:    0.8206    magn:    0.0002    constr:    0.0000
     atom:   43    charge:    0.8180    magn:   -0.0000    constr:    0.0000
     atom:   44    charge:    0.8193    magn:    0.0001    constr:    0.0000
     atom:   45    charge:    0.8206    magn:    0.0000    constr:    0.0000
     atom:   46    charge:    0.8209    magn:    0.0000    constr:    0.0000
     atom:   47    charge:    0.8245    magn:   -0.0001    constr:    0.0000
     atom:   48    charge:    0.8221    magn:    0.0000    constr:    0.0000
     atom:   49    charge:    0.8256    magn:   -0.0000    constr:    0.0000
     atom:   50    charge:    2.7350    magn:    0.0003    constr:    0.0000
     atom:   51    charge:    2.7282    magn:   -0.0001    constr:    0.0000
     atom:   52    charge:    2.7246    magn:    0.0018    constr:    0.0000
     atom:   53    charge:    2.7300    magn:    0.0000    constr:    0.0000
     atom:   54    charge:    2.7322    magn:    0.0001    constr:    0.0000
     atom:   55    charge:    2.7313    magn:    0.0000    constr:    0.0000
     atom:   56    charge:    2.7263    magn:   -0.0000    constr:    0.0000
     atom:   57    charge:    2.7289    magn:    0.0002    constr:    0.0000
     atom:   58    charge:    2.7265    magn:    0.0028    constr:    0.0000
     atom:   59    charge:    2.7252    magn:    0.0065    constr:    0.0000
     atom:   60    charge:    2.7198    magn:    0.0105    constr:    0.0000
     atom:   61    charge:    2.7309    magn:    0.0008    constr:    0.0000
     atom:   62    charge:    2.7258    magn:   -0.0000    constr:    0.0000
     atom:   63    charge:    2.7313    magn:    0.0000    constr:    0.0000
     atom:   64    charge:    2.7374    magn:    0.0000    constr:    0.0000
     atom:   65    charge:    2.7288    magn:    0.0003    constr:    0.0000
     atom:   66    charge:    2.7315    magn:    0.0146    constr:    0.0000
     atom:   67    charge:    1.6215    magn:    0.1397    constr:    0.0000
     atom:   68    charge:    2.7469    magn:   -0.0017    constr:    0.0000
     atom:   69    charge:    2.7309    magn:    0.0008    constr:    0.0000
     atom:   70    charge:    2.7322    magn:    0.0001    constr:    0.0000
     atom:   71    charge:    2.7289    magn:   -0.0000    constr:    0.0000
     atom:   72    charge:    2.7261    magn:    0.0001    constr:    0.0000
     atom:   73    charge:    2.7232    magn:    0.0006    constr:    0.0000
     atom:   74    charge:    2.7062    magn:   -0.0053    constr:    0.0000
     atom:   75    charge:    1.6215    magn:    0.1396    constr:    0.0000
     atom:   76    charge:    2.7198    magn:    0.0105    constr:    0.0000
     atom:   77    charge:    2.7300    magn:    0.0000    constr:    0.0000
     atom:   78    charge:    2.7338    magn:    0.0000    constr:    0.0000
     atom:   79    charge:    2.7254    magn:   -0.0000    constr:    0.0000
     atom:   80    charge:    2.7366    magn:   -0.0001    constr:    0.0000
     atom:   81    charge:    2.7232    magn:    0.0006    constr:    0.0000
     atom:   82    charge:    2.7315    magn:    0.0146    constr:    0.0000
     atom:   83    charge:    2.7252    magn:    0.0065    constr:    0.0000
     atom:   84    charge:    2.7246    magn:    0.0018    constr:    0.0000
     atom:   85    charge:    2.7271    magn:    0.0002    constr:    0.0000
     atom:   86    charge:    2.7218    magn:   -0.0001    constr:    0.0000
     atom:   87    charge:    2.7254    magn:   -0.0000    constr:    0.0000
     atom:   88    charge:    2.7261    magn:    0.0001    constr:    0.0000
     atom:   89    charge:    2.7288    magn:    0.0003    constr:    0.0000
     atom:   90    charge:    2.7265    magn:    0.0028    constr:    0.0000
     atom:   91    charge:    2.7282    magn:   -0.0001    constr:    0.0000
     atom:   92    charge:    2.7357    magn:   -0.0000    constr:    0.0000
     atom:   93    charge:    2.7271    magn:    0.0002    constr:    0.0000
     atom:   94    charge:    2.7338    magn:    0.0000    constr:    0.0000
     atom:   95    charge:    2.7289    magn:   -0.0000    constr:    0.0000
     atom:   96    charge:    2.7374    magn:    0.0000    constr:    0.0000
     atom:   97    charge:    2.7289    magn:    0.0002    constr:    0.0000
     atom:   98    charge:    2.7350    magn:    0.0003    constr:    0.0000

     total cpu time spent up to now is    27414.7 secs

     End of self-consistent calculation

 ------ SPIN UP ------------


          k = 0.0000 0.0000 0.0000 ( 39925 PWs)   bands (ev):

   -25.2471 -25.0114 -24.8231 -24.8148 -24.7949 -24.7432 -24.6882 -24.2261
   -24.0150 -23.9979 -23.9969 -23.9073 -23.8927 -23.7553 -23.6266 -23.6154
   -23.6024 -23.4576 -23.4424 -22.8488 -22.6456 -22.6412 -22.6355 -22.6258
   -22.6242 -22.6204 -22.6160 -22.5905 -22.5738 -22.3987 -22.3920 -22.2455
   -22.1901 -22.1885 -22.1676 -21.9799 -21.9752 -21.7295 -21.7140 -21.7053
   -21.6931 -21.6236 -21.6108 -21.5436 -21.5220 -21.5201 -21.5088 -20.1124
   -17.9945 -15.5578 -15.1363 -15.1331 -15.1203 -15.0839 -15.0742 -14.9969
   -14.9090 -14.8754 -14.8747 -14.8242 -14.7663 -14.4834 -14.4011 -14.3928
   -14.3613 -14.3106 -14.2847 -13.7950 -13.6630 -13.6431 -13.6219 -13.6119
   -13.6028 -13.5956 -13.5920 -13.5590 -13.5358 -13.3478 -13.2749 -13.0399
   -12.8477 -12.8343 -12.8122 -12.7999 -12.6409 -12.1404 -12.1090 -12.0754
   -11.9968 -11.9504 -11.8850 -11.4196 -11.3512 -11.3205 -11.3105 -11.2934
   -11.2857 -11.2247 -11.0222 -10.8977 -10.8900 -10.8552 -10.8484 -10.8397
   -10.8373 -10.8254 -10.8105 -10.7930 -10.7844 -10.7801 -10.7728 -10.7700
   -10.7287 -10.7187 -10.7129 -10.7020 -10.6663 -10.6322 -10.6186 -10.6155
   -10.4214 -10.4209 -10.1049 -10.0961 -10.0954 -10.0574 -10.0046  -9.7498
    -9.6856  -9.5816  -9.5674  -9.5673  -9.4889  -9.4879  -9.3709  -9.3102
    -9.3092  -9.2729  -9.2546  -9.2462  -9.2215  -9.2122  -9.1709  -9.1297
    -9.0832  -9.0368  -9.0276  -9.0193  -9.0054  -8.9349  -8.9021  -8.8155
    -8.7646  -8.7313  -8.7091  -8.5596  -8.3877  -8.2741  -7.8628  -7.8381
    -7.8332  -7.7900  -7.7419  -7.5574  -7.5543  -7.5506  -7.5439  -7.5350
    -7.5319  -7.5297  -7.5139  -7.4941  -7.4654  -7.3766  -7.3521  -7.2844
    -6.9368  -6.8617  -6.8596  -6.8446  -6.7727  -6.7566  -6.7356  -6.6567
    -6.1332  -6.1046  -6.0910  -6.0854  -6.0155  -5.9692  -5.8305  -5.7990
    -5.7948  -5.7875  -5.6380  -4.7580  -0.2859   0.0488   0.2787   0.3583
     0.3588   0.3605   0.3643   0.3684   0.3835   0.6761   0.6883   0.6883
     0.6907   0.6939   0.6968   0.9243   0.9249   0.9272   0.9300   0.9357
     0.9535   0.9708   1.3624   1.6542   1.6585   1.6589   1.6622   1.6658
     1.6658   1.6926   1.6973   1.7014   1.7143   1.7168   1.7456   1.8191
     1.9322   1.9484   1.9687   1.9723   1.9734   1.9787   1.9809   1.9824
     1.9827   1.9862   1.9883   2.0026   2.2284

 ------ SPIN DOWN ----------


          k = 0.0000 0.0000 0.0000 ( 39925 PWs)   bands (ev):

   -25.2434 -25.0145 -24.8205 -24.8132 -24.7941 -24.7329 -24.6790 -24.2276
   -24.0105 -23.9945 -23.9887 -23.9006 -23.8876 -23.7552 -23.6187 -23.6088
   -23.5979 -23.4409 -23.4294 -22.8422 -22.6401 -22.6392 -22.6334 -22.6224
   -22.6195 -22.6117 -22.6116 -22.5766 -22.5680 -22.3911 -22.3859 -22.2400
   -22.1845 -22.1843 -22.1618 -21.9668 -21.9622 -21.7208 -21.7103 -21.6985
   -21.6885 -21.6186 -21.6010 -21.5418 -21.5180 -21.5159 -21.5038 -19.8907
   -17.4749 -15.4992 -15.1347 -15.1283 -15.1179 -15.0789 -15.0716 -14.9927
   -14.9073 -14.8704 -14.8704 -14.8022 -14.7550 -14.4774 -14.3993 -14.3899
   -14.3552 -14.2922 -14.2730 -13.7812 -13.6580 -13.6386 -13.6205 -13.6107
   -13.6010 -13.5925 -13.5911 -13.5480 -13.5208 -13.2966 -13.2365 -13.0359
   -12.8457 -12.8326 -12.8016 -12.7937 -12.6244 -12.1369 -12.1051 -12.0692
   -11.9824 -11.9301 -11.8623 -11.4177 -11.3414 -11.3156 -11.2875 -11.2861
   -11.2831 -11.2194 -11.0205 -10.8924 -10.8865 -10.8527 -10.8471 -10.8378
   -10.8337 -10.8230 -10.8089 -10.7832 -10.7776 -10.7695 -10.7676 -10.7658
   -10.7216 -10.7131 -10.6996 -10.6957 -10.6275 -10.6169 -10.5914 -10.5114
   -10.4043 -10.3757 -10.1037 -10.0943 -10.0928 -10.0332  -9.9944  -9.7289
    -9.6776  -9.5687  -9.5566  -9.5456  -9.4459  -9.4247  -9.3634  -9.3095
    -9.3054  -9.2706  -9.2534  -9.2454  -9.2206  -9.2108  -9.1685  -9.1300
    -9.0737  -9.0120  -9.0049  -9.0004  -8.9893  -8.8157  -8.8146  -8.7907
    -8.7630  -8.7308  -8.6947  -8.5232  -8.3599  -8.2353  -7.8597  -7.8367
    -7.8300  -7.7728  -7.7418  -7.5486  -7.5414  -7.5404  -7.5300  -7.5270
    -7.5167  -7.5026  -7.4681  -7.4684  -7.4373  -7.3113  -7.2576  -7.2064
    -6.9193  -6.8474  -6.8413  -6.8241  -6.6631  -6.6589  -6.6287  -6.5492
    -6.1063  -6.0884  -6.0697  -6.0664  -5.9470  -5.9431  -5.8255  -5.7845
    -5.7798  -5.7710  -5.2249  -2.1565  -0.2855   0.0487   0.2789   0.3579
     0.3585   0.3602   0.3640   0.3689   0.3871   0.6768   0.6881   0.6884
     0.6906   0.6935   0.6978   0.9239   0.9246   0.9269   0.9296   0.9366
     0.9588   1.0734   1.3695   1.6538   1.6581   1.6586   1.6620   1.6675
     1.6682   1.6960   1.7035   1.7155   1.7449   1.7479   1.7469   1.8227
     1.9355   1.9604   1.9672   1.9696   1.9714   1.9725   1.9777   1.9797
     1.9815   1.9841   1.9857   1.9907   1.9910

     highest occupied, lowest unoccupied level (ev):    -4.7580   -2.1565

!    total energy              =   -1713.48329032 Ry
     Harris-Foulkes estimate   =   -1713.48329039 Ry
     estimated scf accuracy    <       0.00000029 Ry

     total magnetization       =     1.00 Bohr mag/cell
     absolute magnetization    =     1.44 Bohr mag/cell

     convergence has been achieved in   1 iterations

     Using ACE for calculation of exact exchange

!!   total energy              =   -1713.48329069 Ry
     Harris-Foulkes estimate   =   -1713.48329077 Ry
     est. exchange err (dexx)  =       0.00000038 Ry
     - averaged Fock potential =     194.03138058 Ry
     + Fock energy (ACE)       =     -97.01529501 Ry

     EXX self-consistency reached

     Writing output data file C2Cn.save/
 
     init_run     :      1.84s CPU      1.95s WALL (       1 calls)
     electrons    :    811.15s CPU    819.24s WALL (       7 calls)

     Called by init_run:
     wfcinit      :      0.80s CPU      0.85s WALL (       1 calls)
     potinit      :      0.44s CPU      0.45s WALL (       1 calls)
     hinit0       :      0.40s CPU      0.41s WALL (       1 calls)

     Called by electrons:
     c_bands      :    782.26s CPU    788.65s WALL (      33 calls)
     sum_band     :      7.78s CPU      7.96s WALL (      33 calls)
     v_of_rho     :      3.16s CPU      3.26s WALL (      35 calls)
     newd         :      0.97s CPU      1.09s WALL (      34 calls)
     PAW_pot      :      9.11s CPU      9.17s WALL (      35 calls)
     mix_rho      :      0.20s CPU      0.22s WALL (      33 calls)

     Called by c_bands:
     init_us_2    :     15.85s CPU     16.04s WALL (    3578 calls)
     rcgdiagg     :    767.76s CPU    773.91s WALL (      73 calls)
     wfcrot       :     14.69s CPU     14.90s WALL (      61 calls)

     Called by sum_band:
     sum_band:bec :      0.03s CPU      0.03s WALL (      66 calls)
     addusdens    :      1.07s CPU      1.17s WALL (      33 calls)

     Called by *cgdiagg:
     h_psi        :    399.07s CPU    402.67s WALL (   65764 calls)
     s_psi        :    221.46s CPU    223.21s WALL (  131467 calls)
     rdiaghg      :      0.94s CPU      0.97s WALL (      61 calls)

     Called by h_psi:
     h_psi:pot    :    348.34s CPU    351.31s WALL (   65764 calls)
     h_psi:calbec :    136.49s CPU    137.51s WALL (   65764 calls)
     vloc_psi     :     96.71s CPU     97.88s WALL (   65764 calls)
     add_vuspsi   :    114.61s CPU    115.54s WALL (   65764 calls)
     hs_1psi      :    500.38s CPU    504.56s WALL (   65703 calls)
     s_1psi       :    226.76s CPU    228.26s WALL (   65703 calls)

     General routines
     calbec       :    284.72s CPU    287.16s WALL (  179105 calls)
     fft          :      2.04s CPU      2.05s WALL (     574 calls)
     ffts         :      0.10s CPU      0.10s WALL (      66 calls)
     fftw         :     92.72s CPU     93.83s WALL (  154822 calls)
     fftc         :   1577.15s CPU   1586.07s WALL (  672280 calls)
     fftcw        :      4.21s CPU      4.26s WALL (    6874 calls)
 
     Parallel routines
     fft_scatt_xy :     25.40s CPU     25.50s WALL (  834616 calls)
     fft_scatt_yz :   1224.89s CPU   1232.36s WALL (  834616 calls)

     EXX routines
     exx_grid     :      0.00s CPU      0.00s WALL (       1 calls)
     exxinit      :      3.00s CPU      3.06s WALL (       7 calls)
     vexx         :  30966.93s CPU  31095.20s WALL (      14 calls)
     matcalc      :     30.27s CPU     30.62s WALL (   47558 calls)
     aceupdate    :      0.08s CPU      0.09s WALL (      14 calls)
     vexxace      :     50.64s CPU     51.34s WALL (   47518 calls)
     aceinit      :  30967.11s CPU  31095.39s WALL (      14 calls)

     EXX+US  routines
     becxx        :      0.02s CPU      0.02s WALL (       7 calls)
     addusxx      :  14212.51s CPU  14268.93s WALL (  672280 calls)
     newdxx       :  14186.02s CPU  14245.12s WALL (  672280 calls)
     qvan_init    :      0.13s CPU      0.18s WALL (      14 calls)
     nlxx_pot     :     21.62s CPU     21.83s WALL (    3430 calls)

     EXX+PAW routines
     PAW_newdxx   :    874.43s CPU    879.41s WALL (  672280 calls)
 
     PWSCF        :      8h49m CPU      8h52m WALL

 
   This run was terminated on:  18:52:46   1Aug2021            

=------------------------------------------------------------------------------=
   JOB DONE.
=------------------------------------------------------------------------------=
