
     Program PWSCF v.6.4.1 starts on  9Jun2021 at  1:33:26 

     This program is part of the open-source Quantum ESPRESSO suite
     for quantum simulation of materials; please cite
         "P. Giannozzi et al., J. Phys.:Condens. Matter 21 395502 (2009);
         "P. Giannozzi et al., J. Phys.:Condens. Matter 29 465901 (2017);
          URL http://www.quantum-espresso.org", 
     in publications or presentations arising from this work. More details at
     http://www.quantum-espresso.org/quote

     Parallel version (MPI), running on    64 processors

     MPI processes distributed on     2 nodes
     R & G space division:  proc/nbgrp/npool/nimage =      64
     Waiting for input...
     Reading input from standard input

     Current dimensions of program PWSCF are:
     Max number of different atomic species (ntypx) = 10
     Max number of k-points (npk) =  40000
     Max angular momentum in pseudopotentials (lmaxx) =  3
               file N.pbe-n-kjpaw_psl.1.0.0.UPF: wavefunction(s)  2S renormalized
               file C.pbe-n-kjpaw_psl.1.0.0.UPF: wavefunction(s)  2S 2P renormalized
               file C.pbe-n-kjpaw_psl.1.0.0.UPF: wavefunction(s)  2S 2P renormalized
               file C.pbe-n-kjpaw_psl.1.0.0.UPF: wavefunction(s)  2S 2P renormalized

     --------------------------------------------
     Parameters for DFT-D3 Dispersion Correction:
     --------------------------------------------
       Reference C6 values for interpolation: 

         atom   Coordination number   C6
         B          0.000           214.36
         B          0.971           150.74
         B          1.944           106.23
         B          2.913            62.89
         B          4.586            56.06
         C1         0.000            98.23
         C1         0.987            86.49
         C1         1.998            58.72
         C1         2.999            51.56
         C1         3.984            36.41
         C2         0.000            98.23
         C2         0.987            86.49
         C2         1.998            58.72
         C2         2.999            51.56
         C2         3.984            36.41
         C3         0.000            98.23
         C3         0.987            86.49
         C3         1.998            58.72
         C3         2.999            51.56
         C3         3.984            36.41
         N          0.000            50.54
         N          0.994            44.25
         N          2.014            39.35
         N          2.990            31.16

       Values used:

         atom   Coordination number  R0_AB[au]  C6      C8
         B          3.326            3.039     62.90   2506.22
         B          3.317            3.039     62.90   2506.44
         B          3.318            3.039     62.90   2506.42
         B          3.324            3.039     62.90   2506.28
         B          3.325            3.039     62.90   2506.25
         B          3.323            3.039     62.90   2506.29
         B          3.326            3.039     62.90   2506.23
         B          3.324            3.039     62.90   2506.28
         B          3.323            3.039     62.90   2506.30
         B          3.306            3.039     62.91   2506.69
         B          3.319            3.039     62.90   2506.39
         B          3.325            3.039     62.90   2506.26
         B          3.323            3.039     62.90   2506.30
         B          3.323            3.039     62.90   2506.29
         B          3.323            3.039     62.90   2506.29
         B          3.326            3.039     62.90   2506.24
         B          3.293            3.039     62.92   2506.97
         B          3.280            3.039     62.92   2507.27
         B          3.322            3.039     62.90   2506.33
         B          3.325            3.039     62.90   2506.26
         B          3.325            3.039     62.90   2506.25
         B          3.322            3.039     62.90   2506.33
         B          3.317            3.039     62.90   2506.43
         B          3.304            3.039     62.91   2506.73
         C2         3.236            2.750     49.61   1434.81
         B          3.280            3.039     62.92   2507.27
         B          3.319            3.039     62.90   2506.40
         B          3.324            3.039     62.90   2506.28
         B          3.319            3.039     62.90   2506.39
         B          3.316            3.039     62.90   2506.46
         B          3.305            3.039     62.91   2506.71
         B          3.304            3.039     62.91   2506.73
         B          3.293            3.039     62.92   2506.97
         B          3.306            3.039     62.91   2506.69
         B          3.318            3.039     62.90   2506.42
         B          3.316            3.039     62.90   2506.47
         B          3.316            3.039     62.90   2506.46
         B          3.316            3.039     62.90   2506.46
         B          3.317            3.039     62.90   2506.43
         B          3.326            3.039     62.90   2506.23
         B          3.323            3.039     62.90   2506.30
         B          3.317            3.039     62.90   2506.44
         B          3.319            3.039     62.90   2506.40
         B          3.316            3.039     62.90   2506.47
         B          3.319            3.039     62.90   2506.39
         B          3.322            3.039     62.90   2506.33
         B          3.323            3.039     62.90   2506.29
         B          3.324            3.039     62.90   2506.28
         B          3.326            3.039     62.90   2506.22
         N          3.129            2.478     31.22    688.74
         N          3.129            2.478     31.22    688.75
         N          3.125            2.478     31.22    688.78
         N          3.128            2.478     31.22    688.76
         N          3.129            2.478     31.22    688.74
         N          3.128            2.478     31.22    688.75
         N          3.128            2.478     31.22    688.75
         N          3.128            2.478     31.22    688.75
         N          3.129            2.478     31.22    688.75
         N          3.125            2.478     31.22    688.78
         N          3.123            2.478     31.22    688.80
         N          3.129            2.478     31.22    688.74
         N          3.128            2.478     31.22    688.75
         N          3.128            2.478     31.22    688.75
         N          3.129            2.478     31.22    688.74
         N          3.129            2.478     31.22    688.75
         N          3.130            2.478     31.22    688.73
         C1         3.176            2.750     50.30   1454.87
         N          3.127            2.478     31.22    688.77
         N          3.129            2.478     31.22    688.74
         N          3.129            2.478     31.22    688.74
         N          3.128            2.478     31.22    688.75
         N          3.126            2.478     31.22    688.77
         N          3.123            2.478     31.22    688.81
         N          3.143            2.478     31.21    688.61
         C3         3.176            2.750     50.30   1454.87
         N          3.123            2.478     31.22    688.80
         N          3.128            2.478     31.22    688.76
         N          3.127            2.478     31.22    688.77
         N          3.126            2.478     31.22    688.77
         N          3.125            2.478     31.22    688.79
         N          3.123            2.478     31.22    688.81
         N          3.130            2.478     31.22    688.73
         N          3.125            2.478     31.22    688.78
         N          3.125            2.478     31.22    688.78
         N          3.126            2.478     31.22    688.77
         N          3.126            2.478     31.22    688.78
         N          3.126            2.478     31.22    688.77
         N          3.126            2.478     31.22    688.77
         N          3.129            2.478     31.22    688.75
         N          3.129            2.478     31.22    688.75
         N          3.129            2.478     31.22    688.75
         N          3.129            2.478     31.22    688.74
         N          3.126            2.478     31.22    688.77
         N          3.127            2.478     31.22    688.77
         N          3.128            2.478     31.22    688.75
         N          3.129            2.478     31.22    688.74
         N          3.128            2.478     31.22    688.75
         N          3.129            2.478     31.22    688.74

         Molecular C6 ( Ry / a.u.^6 ) =    437753.49


     gamma-point specific algorithms are used

     Subspace diagonalization in iterative solution of the eigenvalue problem:
     one sub-group per band group will be used
     scalapack distributed-memory algorithm (size of sub-group:  5*  5 procs)

     Message from routine setup:
     DEPRECATED: symmetry with ibrav=0, use correct ibrav instead
 
     Parallelization info
     --------------------
     sticks:   dense  smooth     PW     G-vecs:    dense   smooth      PW
     Min         189     189     46                19338    19338    2406
     Max         192     192     48                19354    19354    2428
     Sum       12173   12173   3053              1238249  1238249  154949
 


     bravais-lattice index     =            0
     lattice parameter (alat)  =      33.2346  a.u.
     unit-cell volume          =   36236.0121 (a.u.)^3
     number of atoms/cell      =           98
     number of atomic types    =            5
     number of electrons       =       391.00
     number of Kohn-Sham states=          245
     kinetic-energy cutoff     =      40.0000  Ry
     charge density cutoff     =     160.0000  Ry
     convergence threshold     =      1.0E-10
     mixing beta               =       0.7000
     number of iterations used =            8  plain     mixing
     Exchange-correlation      = SLA PW PBX PBC ( 1  4  3  4 0 0)
     Using LIBXC version       =    4   3   4
     nstep                     =           50


     celldm(1)=  33.234611  celldm(2)=   0.000000  celldm(3)=   0.000000
     celldm(4)=   0.000000  celldm(5)=   0.000000  celldm(6)=   0.000000

     crystal axes: (cart. coord. in units of alat)
               a(1) = (   1.001038   0.000196   0.000000 )  
               a(2) = (  -0.500349   0.867023   0.000000 )  
               a(3) = (   0.000000   0.000000   1.137204 )  

     reciprocal axes: (cart. coord. in units 2 pi/alat)
               b(1) = (  0.998850  0.576425  0.000000 )  
               b(2) = ( -0.000226  1.153242  0.000000 )  
               b(3) = (  0.000000  0.000000  0.879350 )  


     PseudoPot. # 1 for B  read from file:
     ./pseudo/B.pbe-n-kjpaw_psl.1.0.0.UPF
     MD5 check sum: 8c825a5969375aca5c2c6ad5945b3059
     Pseudo is Projector augmented-wave + core cor, Zval =  3.0
     Generated using "atomic" code by A. Dal Corso v.6.3
     Shape of augmentation charge: PSQ
     Using radial grid of 1059 points,  4 beta functions with: 
                l(1) =   0
                l(2) =   0
                l(3) =   1
                l(4) =   1
     Q(r) pseudized with 0 coefficients 


     PseudoPot. # 2 for N  read from file:
     ./pseudo/N.pbe-n-kjpaw_psl.1.0.0.UPF
     MD5 check sum: 14c48229446f9f2d411169a3abcbc3fa
     Pseudo is Projector augmented-wave + core cor, Zval =  5.0
     Generated using "atomic" code by A. Dal Corso v.6.3
     Shape of augmentation charge: PSQ
     Using radial grid of 1085 points,  4 beta functions with: 
                l(1) =   0
                l(2) =   0
                l(3) =   1
                l(4) =   1
     Q(r) pseudized with 0 coefficients 


     PseudoPot. # 3 for C  read from file:
     ./pseudo/C.pbe-n-kjpaw_psl.1.0.0.UPF
     MD5 check sum: 5f16ad9a65e90284d1d834d4ab3b0f7d
     Pseudo is Projector augmented-wave + core cor, Zval =  4.0
     Generated using "atomic" code by A. Dal Corso v.6.3
     Shape of augmentation charge: PSQ
     Using radial grid of 1073 points,  4 beta functions with: 
                l(1) =   0
                l(2) =   0
                l(3) =   1
                l(4) =   1
     Q(r) pseudized with 0 coefficients 


     PseudoPot. # 4 for C  read from file:
     ./pseudo/C.pbe-n-kjpaw_psl.1.0.0.UPF
     MD5 check sum: 5f16ad9a65e90284d1d834d4ab3b0f7d
     Pseudo is Projector augmented-wave + core cor, Zval =  4.0
     Generated using "atomic" code by A. Dal Corso v.6.3
     Shape of augmentation charge: PSQ
     Using radial grid of 1073 points,  4 beta functions with: 
                l(1) =   0
                l(2) =   0
                l(3) =   1
                l(4) =   1
     Q(r) pseudized with 0 coefficients 


     PseudoPot. # 5 for C  read from file:
     ./pseudo/C.pbe-n-kjpaw_psl.1.0.0.UPF
     MD5 check sum: 5f16ad9a65e90284d1d834d4ab3b0f7d
     Pseudo is Projector augmented-wave + core cor, Zval =  4.0
     Generated using "atomic" code by A. Dal Corso v.6.3
     Shape of augmentation charge: PSQ
     Using radial grid of 1073 points,  4 beta functions with: 
                l(1) =   0
                l(2) =   0
                l(3) =   1
                l(4) =   1
     Q(r) pseudized with 0 coefficients 


     atomic species   valence    mass     pseudopotential
        B              3.00    10.00000     B ( 1.00)
        N              5.00    14.00000     N ( 1.00)
        C1             4.00    12.00000     C ( 1.00)
        C2             4.00    12.00000     C ( 1.00)
        C3             4.00    12.00000     C ( 1.00)

     Starting magnetic structure 
     atomic species   magnetization
        B            0.000
        N            0.000
        C1           1.000
        C2           0.000
        C3           0.000

      2 Sym. Ops. (no inversion) found



   Cartesian axes

     site n.     atom                  positions (alat units)
         1           B   tau(   1) = (  -0.0000605   0.0820921   0.5686018  )
         2           B   tau(   2) = (  -0.0716004   0.2061596   0.5686018  )
         3           B   tau(   3) = (  -0.1432581   0.3302664   0.5686018  )
         4           B   tau(   4) = (  -0.2148087   0.4541304   0.5686018  )
         5           B   tau(   5) = (  -0.2858313   0.5780114   0.5686018  )
         6           B   tau(   6) = (  -0.3571077   0.7019762   0.5686018  )
         7           B   tau(   7) = (  -0.4287197   0.8256687   0.5686018  )
         8           B   tau(   8) = (   0.1428973   0.0817843   0.5686018  )
         9           B   tau(   9) = (   0.0710478   0.2050380   0.5686018  )
        10           B   tau(  10) = (  -0.0002773   0.3301522   0.5686018  )
        11           B   tau(  11) = (  -0.0723762   0.4541318   0.5686018  )
        12           B   tau(  12) = (  -0.1437519   0.5781577   0.5686018  )
        13           B   tau(  13) = (  -0.2145173   0.7019983   0.5686018  )
        14           B   tau(  14) = (  -0.2857935   0.8254964   0.5686018  )
        15           B   tau(  15) = (   0.2863581   0.0817806   0.5686018  )
        16           B   tau(  16) = (   0.2148655   0.2045955   0.5686018  )
        17           B   tau(  17) = (   0.1429676   0.3270198   0.5686018  )
        18           B   tau(  18) = (   0.0698767   0.4554659   0.5686018  )
        19           B   tau(  19) = (  -0.0019871   0.5792929   0.5686018  )
        20           B   tau(  20) = (  -0.0718864   0.7026337   0.5686018  )
        21           B   tau(  21) = (  -0.1427993   0.8257513   0.5686018  )
        22           B   tau(  22) = (   0.4291435   0.0825455   0.5686018  )
        23           B   tau(  23) = (   0.3576030   0.2061119   0.5686018  )
        24           B   tau(  24) = (   0.2853703   0.3290965   0.5686018  )
        25           C2  tau(  25) = (   0.2166853   0.4530422   0.5686018  )
        26           B   tau(  26) = (   0.1411827   0.5789702   0.5686018  )
        27           B   tau(  27) = (   0.0712115   0.7028331   0.5686018  )
        28           B   tau(  28) = (  -0.0000042   0.8261841   0.5686018  )
        29           B   tau(  29) = (   0.5719372   0.0827286   0.5686018  )
        30           B   tau(  30) = (   0.5005483   0.2064676   0.5686018  )
        31           B   tau(  31) = (   0.4290922   0.3304094   0.5686018  )
        32           B   tau(  32) = (   0.3583680   0.4555330   0.5686018  )
        33           B   tau(  33) = (   0.2889658   0.5798954   0.5686018  )
        34           B   tau(  34) = (   0.2146310   0.7023827   0.5686018  )
        35           B   tau(  35) = (   0.1430407   0.8261511   0.5686018  )
        36           B   tau(  36) = (   0.7149617   0.0827872   0.5686018  )
        37           B   tau(  37) = (   0.6434476   0.2066510   0.5686018  )
        38           B   tau(  38) = (   0.5721568   0.3304970   0.5686018  )
        39           B   tau(  39) = (   0.5009919   0.4544694   0.5686018  )
        40           B   tau(  40) = (   0.4309361   0.5788414   0.5686018  )
        41           B   tau(  41) = (   0.3586439   0.7031700   0.5686018  )
        42           B   tau(  42) = (   0.2863489   0.8261473   0.5686018  )
        43           B   tau(  43) = (   0.8581368   0.0827009   0.5686018  )
        44           B   tau(  44) = (   0.7864745   0.2066502   0.5686018  )
        45           B   tau(  45) = (   0.7150130   0.3305418   0.5686018  )
        46           B   tau(  46) = (   0.6437744   0.4542965   0.5686018  )
        47           B   tau(  47) = (   0.5730435   0.5783346   0.5686018  )
        48           B   tau(  48) = (   0.5013097   0.7025742   0.5686018  )
        49           B   tau(  49) = (   0.4295648   0.8262266   0.5686018  )
        50           N   tau(  50) = (   0.0714309   0.0409229   0.5686018  )
        51           N   tau(  51) = (  -0.0003741   0.1644001   0.5686018  )
        52           N   tau(  52) = (  -0.0717271   0.2888499   0.5686018  )
        53           N   tau(  53) = (  -0.1435681   0.4127631   0.5686018  )
        54           N   tau(  54) = (  -0.2148409   0.5366371   0.5686018  )
        55           N   tau(  55) = (  -0.2858194   0.6605955   0.5686018  )
        56           N   tau(  56) = (  -0.3572396   0.7843969   0.5686018  )
        57           N   tau(  57) = (   0.2146384   0.0408404   0.5686018  )
        58           N   tau(  58) = (   0.1428415   0.1640322   0.5686018  )
        59           N   tau(  59) = (   0.0709083   0.2873939   0.5686018  )
        60           N   tau(  60) = (  -0.0009871   0.4129703   0.5686018  )
        61           N   tau(  61) = (  -0.0728041   0.5369420   0.5686018  )
        62           N   tau(  62) = (  -0.1432155   0.6608309   0.5686018  )
        63           N   tau(  63) = (  -0.2143133   0.7844467   0.5686018  )
        64           N   tau(  64) = (   0.3578203   0.0410940   0.5686018  )
        65           N   tau(  65) = (   0.2866209   0.1641290   0.5686018  )
        66           N   tau(  66) = (   0.2150538   0.2863211   0.5686018  )
        67           C1  tau(  67) = (   0.1450684   0.4126954   0.5686018  )
        68           N   tau(  68) = (   0.0685405   0.5385734   0.5686018  )
        69           N   tau(  69) = (  -0.0007184   0.6617974   0.5686018  )
        70           N   tau(  70) = (  -0.0714724   0.7849575   0.5686018  )
        71           N   tau(  71) = (   0.5005227   0.0415771   0.5686018  )
        72           N   tau(  72) = (   0.4291151   0.1652326   0.5686018  )
        73           N   tau(  73) = (   0.3572950   0.2892435   0.5686018  )
        74           N   tau(  74) = (   0.2850146   0.4135926   0.5686018  )
        75           C3  tau(  75) = (   0.2158194   0.5352388   0.5686018  )
        76           N   tau(  76) = (   0.1425535   0.6615886   0.5686018  )
        77           N   tau(  77) = (   0.0714423   0.7851713   0.5686018  )
        78           N   tau(  78) = (   0.6434368   0.0416257   0.5686018  )
        79           N   tau(  79) = (   0.5719530   0.1653498   0.5686018  )
        80           N   tau(  80) = (   0.5003856   0.2892484   0.5686018  )
        81           N   tau(  81) = (   0.4288447   0.4131708   0.5686018  )
        82           N   tau(  82) = (   0.3602557   0.5378168   0.5686018  )
        83           N   tau(  83) = (   0.2872538   0.6621141   0.5686018  )
        84           N   tau(  84) = (   0.2146751   0.7849118   0.5686018  )
        85           N   tau(  85) = (   0.7865340   0.0415945   0.5686018  )
        86           N   tau(  86) = (   0.7149324   0.1653794   0.5686018  )
        87           N   tau(  87) = (   0.6434684   0.2892187   0.5686018  )
        88           N   tau(  88) = (   0.5721512   0.4129789   0.5686018  )
        89           N   tau(  89) = (   0.5018602   0.5369341   0.5686018  )
        90           N   tau(  90) = (   0.4300544   0.6614988   0.5686018  )
        91           N   tau(  91) = (   0.3581277   0.7853421   0.5686018  )
        92           N   tau(  92) = (   0.9295633   0.0414609   0.5686018  )
        93           N   tau(  93) = (   0.8579336   0.1652629   0.5686018  )
        94           N   tau(  94) = (   0.7863584   0.2891741   0.5686018  )
        95           N   tau(  95) = (   0.7149434   0.4129659   0.5686018  )
        96           N   tau(  96) = (   0.6440104   0.5367909   0.5686018  )
        97           N   tau(  97) = (   0.5726387   0.6609159   0.5686018  )
        98           N   tau(  98) = (   0.5009633   0.7848946   0.5686018  )

     number of k points=     1
                       cart. coord. in units 2pi/alat
        k(    1) = (   0.0000000   0.0000000   0.0000000), wk =   1.0000000

     Dense  grid:   619125 G-vectors     FFT dimensions: ( 135, 135, 160)

     Occupations read from input 

      Spin-up

        1.0000   1.0000   1.0000   1.0000   1.0000   1.0000   1.0000   1.0000
        1.0000   1.0000   1.0000   1.0000   1.0000   1.0000   1.0000   1.0000
        1.0000   1.0000   1.0000   1.0000   1.0000   1.0000   1.0000   1.0000
        1.0000   1.0000   1.0000   1.0000   1.0000   1.0000   1.0000   1.0000
        1.0000   1.0000   1.0000   1.0000   1.0000   1.0000   1.0000   1.0000
        1.0000   1.0000   1.0000   1.0000   1.0000   1.0000   1.0000   1.0000
        1.0000   1.0000   1.0000   1.0000   1.0000   1.0000   1.0000   1.0000
        1.0000   1.0000   1.0000   1.0000   1.0000   1.0000   1.0000   1.0000
        1.0000   1.0000   1.0000   1.0000   1.0000   1.0000   1.0000   1.0000
        1.0000   1.0000   1.0000   1.0000   1.0000   1.0000   1.0000   1.0000
        1.0000   1.0000   1.0000   1.0000   1.0000   1.0000   1.0000   1.0000
        1.0000   1.0000   1.0000   1.0000   1.0000   1.0000   1.0000   1.0000
        1.0000   1.0000   1.0000   1.0000   1.0000   1.0000   1.0000   1.0000
        1.0000   1.0000   1.0000   1.0000   1.0000   1.0000   1.0000   1.0000
        1.0000   1.0000   1.0000   1.0000   1.0000   1.0000   1.0000   1.0000
        1.0000   1.0000   1.0000   1.0000   1.0000   1.0000   1.0000   1.0000
        1.0000   1.0000   1.0000   1.0000   1.0000   1.0000   1.0000   1.0000
        1.0000   1.0000   1.0000   1.0000   1.0000   1.0000   1.0000   1.0000
        1.0000   1.0000   1.0000   1.0000   1.0000   1.0000   1.0000   1.0000
        1.0000   1.0000   1.0000   1.0000   1.0000   1.0000   1.0000   1.0000
        1.0000   1.0000   1.0000   1.0000   1.0000   1.0000   1.0000   1.0000
        1.0000   1.0000   1.0000   1.0000   1.0000   1.0000   1.0000   1.0000
        1.0000   1.0000   1.0000   1.0000   1.0000   1.0000   1.0000   1.0000
        1.0000   1.0000   1.0000   1.0000   1.0000   1.0000   1.0000   1.0000
        1.0000   1.0000   1.0000   1.0000   0.0000   0.0000   0.0000   0.0000
        0.0000   0.0000   0.0000   0.0000   0.0000   0.0000   0.0000   0.0000
        0.0000   0.0000   0.0000   0.0000   0.0000   0.0000   0.0000   0.0000
        0.0000   0.0000   0.0000   0.0000   0.0000   0.0000   0.0000   0.0000
        0.0000   0.0000   0.0000   0.0000   0.0000   0.0000   0.0000   0.0000
        0.0000   0.0000   0.0000   0.0000   0.0000   0.0000   0.0000   0.0000
        0.0000   0.0000   0.0000   0.0000   0.0000

      Spin-down

        1.0000   1.0000   1.0000   1.0000   1.0000   1.0000   1.0000   1.0000
        1.0000   1.0000   1.0000   1.0000   1.0000   1.0000   1.0000   1.0000
        1.0000   1.0000   1.0000   1.0000   1.0000   1.0000   1.0000   1.0000
        1.0000   1.0000   1.0000   1.0000   1.0000   1.0000   1.0000   1.0000
        1.0000   1.0000   1.0000   1.0000   1.0000   1.0000   1.0000   1.0000
        1.0000   1.0000   1.0000   1.0000   1.0000   1.0000   1.0000   1.0000
        1.0000   1.0000   1.0000   1.0000   1.0000   1.0000   1.0000   1.0000
        1.0000   1.0000   1.0000   1.0000   1.0000   1.0000   1.0000   1.0000
        1.0000   1.0000   1.0000   1.0000   1.0000   1.0000   1.0000   1.0000
        1.0000   1.0000   1.0000   1.0000   1.0000   1.0000   1.0000   1.0000
        1.0000   1.0000   1.0000   1.0000   1.0000   1.0000   1.0000   1.0000
        1.0000   1.0000   1.0000   1.0000   1.0000   1.0000   1.0000   1.0000
        1.0000   1.0000   1.0000   1.0000   1.0000   1.0000   1.0000   1.0000
        1.0000   1.0000   1.0000   1.0000   1.0000   1.0000   1.0000   1.0000
        1.0000   1.0000   1.0000   1.0000   1.0000   1.0000   1.0000   1.0000
        1.0000   1.0000   1.0000   1.0000   1.0000   1.0000   1.0000   1.0000
        1.0000   1.0000   1.0000   1.0000   1.0000   1.0000   1.0000   1.0000
        1.0000   1.0000   1.0000   1.0000   1.0000   1.0000   1.0000   1.0000
        1.0000   1.0000   1.0000   1.0000   1.0000   1.0000   1.0000   1.0000
        1.0000   1.0000   1.0000   1.0000   1.0000   1.0000   1.0000   1.0000
        1.0000   1.0000   1.0000   1.0000   1.0000   1.0000   1.0000   1.0000
        1.0000   1.0000   1.0000   1.0000   1.0000   1.0000   1.0000   1.0000
        1.0000   1.0000   1.0000   1.0000   1.0000   1.0000   1.0000   1.0000
        1.0000   1.0000   1.0000   1.0000   1.0000   1.0000   1.0000   1.0000
        1.0000   1.0000   0.0000   0.0000   1.0000   0.0000   0.0000   0.0000
        0.0000   0.0000   0.0000   0.0000   0.0000   0.0000   0.0000   0.0000
        0.0000   0.0000   0.0000   0.0000   0.0000   0.0000   0.0000   0.0000
        0.0000   0.0000   0.0000   0.0000   0.0000   0.0000   0.0000   0.0000
        0.0000   0.0000   0.0000   0.0000   0.0000   0.0000   0.0000   0.0000
        0.0000   0.0000   0.0000   0.0000   0.0000   0.0000   0.0000   0.0000
        0.0000   0.0000   0.0000   0.0000   0.0000

     Estimated max dynamical RAM per process >     122.44 MB

     Estimated total dynamical RAM >       7.65 GB
     Generating pointlists ...
     new r_m :   0.0336 (alat units)  1.1165 (a.u.) for type    1
     new r_m :   0.0325 (alat units)  1.0817 (a.u.) for type    2
     new r_m :   0.0339 (alat units)  1.1269 (a.u.) for type    3
     new r_m :   0.0325 (alat units)  1.0817 (a.u.) for type    4
     new r_m :   0.0339 (alat units)  1.1269 (a.u.) for type    5

     Check: negative core charge=   -0.000006

     Initial potential from superposition of free atoms

     starting charge  390.98597, renormalised to  391.00000

     negative rho (up, down):  5.511E-02 5.805E-02
     Starting wfcs are  392 randomized atomic wfcs
     Checking if some PAW data can be deallocated... 

     total cpu time spent up to now is        7.9 secs

     Self-consistent Calculation

     iteration #  1     ecut=    40.00 Ry     beta= 0.70
     CG style diagonalization
     ethr =  1.00E-02,  avg # of iterations =  3.1

     negative rho (up, down):  3.247E-01 9.146E-03

     total cpu time spent up to now is       44.5 secs

     total energy              =   -1933.22382359 Ry
     Harris-Foulkes estimate   =   -1946.24561660 Ry
     estimated scf accuracy    <      19.76967320 Ry

     total magnetization       =     1.00 Bohr mag/cell
     absolute magnetization    =     2.53 Bohr mag/cell

     iteration #  2     ecut=    40.00 Ry     beta= 0.70
     CG style diagonalization
     ethr =  5.06E-03,  avg # of iterations =  4.0

     negative rho (up, down):  3.600E-01 7.657E-03

     total cpu time spent up to now is       80.4 secs

     total energy              =   -1937.28707009 Ry
     Harris-Foulkes estimate   =   -1943.69457640 Ry
     estimated scf accuracy    <      12.53172442 Ry

     total magnetization       =     1.00 Bohr mag/cell
     absolute magnetization    =     2.64 Bohr mag/cell

     iteration #  3     ecut=    40.00 Ry     beta= 0.70
     CG style diagonalization
     ethr =  3.21E-03,  avg # of iterations =  3.8

     negative rho (up, down):  4.015E-01 9.567E-03

     total cpu time spent up to now is      114.1 secs

     total energy              =   -1939.61598621 Ry
     Harris-Foulkes estimate   =   -1940.46474117 Ry
     estimated scf accuracy    <       1.61483040 Ry

     total magnetization       =     1.00 Bohr mag/cell
     absolute magnetization    =     3.09 Bohr mag/cell

     iteration #  4     ecut=    40.00 Ry     beta= 0.70
     CG style diagonalization
     ethr =  4.13E-04,  avg # of iterations =  4.1

     negative rho (up, down):  4.514E-01 8.755E-03

     total cpu time spent up to now is      150.7 secs

     total energy              =   -1939.97210981 Ry
     Harris-Foulkes estimate   =   -1940.41777350 Ry
     estimated scf accuracy    <       1.37531798 Ry

     total magnetization       =     1.00 Bohr mag/cell
     absolute magnetization    =     2.71 Bohr mag/cell

     iteration #  5     ecut=    40.00 Ry     beta= 0.70
     CG style diagonalization
     ethr =  3.52E-04,  avg # of iterations =  3.2

     negative rho (up, down):  4.616E-01 7.698E-03

     total cpu time spent up to now is      177.2 secs

     total energy              =   -1940.15338002 Ry
     Harris-Foulkes estimate   =   -1940.19820016 Ry
     estimated scf accuracy    <       0.11721600 Ry

     total magnetization       =     1.00 Bohr mag/cell
     absolute magnetization    =     2.34 Bohr mag/cell

     iteration #  6     ecut=    40.00 Ry     beta= 0.70
     CG style diagonalization
     c_bands:  4 eigenvalues not converged
     c_bands:  2 eigenvalues not converged
     ethr =  3.00E-05,  avg # of iterations =  4.1

     negative rho (up, down):  4.683E-01 7.064E-03

     total cpu time spent up to now is      214.8 secs

     total energy              =   -1940.17108921 Ry
     Harris-Foulkes estimate   =   -1940.17780203 Ry
     estimated scf accuracy    <       0.02561753 Ry

     total magnetization       =     1.00 Bohr mag/cell
     absolute magnetization    =     2.34 Bohr mag/cell

     iteration #  7     ecut=    40.00 Ry     beta= 0.70
     CG style diagonalization
     c_bands:  2 eigenvalues not converged
     c_bands:  4 eigenvalues not converged
     ethr =  6.55E-06,  avg # of iterations =  7.7

     negative rho (up, down):  4.767E-01 7.204E-03

     total cpu time spent up to now is      281.8 secs

     total energy              =   -1940.17539222 Ry
     Harris-Foulkes estimate   =   -1940.17765112 Ry
     estimated scf accuracy    <       0.01034037 Ry

     total magnetization       =     1.00 Bohr mag/cell
     absolute magnetization    =     2.32 Bohr mag/cell

     iteration #  8     ecut=    40.00 Ry     beta= 0.70
     CG style diagonalization
     c_bands:  2 eigenvalues not converged
     c_bands:  4 eigenvalues not converged
     ethr =  2.64E-06,  avg # of iterations =  3.8

     negative rho (up, down):  4.786E-01 7.333E-03

     total cpu time spent up to now is      315.2 secs

     total energy              =   -1940.17747356 Ry
     Harris-Foulkes estimate   =   -1940.17809029 Ry
     estimated scf accuracy    <       0.00180263 Ry

     total magnetization       =     1.00 Bohr mag/cell
     absolute magnetization    =     2.35 Bohr mag/cell

     iteration #  9     ecut=    40.00 Ry     beta= 0.70
     CG style diagonalization
     c_bands:  2 eigenvalues not converged
     ethr =  4.61E-07,  avg # of iterations =  5.5

     negative rho (up, down):  4.794E-01 7.527E-03

     total cpu time spent up to now is      362.8 secs

     total energy              =   -1940.17801232 Ry
     Harris-Foulkes estimate   =   -1940.17802136 Ry
     estimated scf accuracy    <       0.00030551 Ry

     total magnetization       =     1.00 Bohr mag/cell
     absolute magnetization    =     2.36 Bohr mag/cell

     iteration # 10     ecut=    40.00 Ry     beta= 0.70
     CG style diagonalization
     c_bands:  1 eigenvalues not converged
     ethr =  7.81E-08,  avg # of iterations =  3.7

     negative rho (up, down):  4.796E-01 7.640E-03

     total cpu time spent up to now is      395.3 secs

     total energy              =   -1940.17811939 Ry
     Harris-Foulkes estimate   =   -1940.17811680 Ry
     estimated scf accuracy    <       0.00006712 Ry

     total magnetization       =     1.00 Bohr mag/cell
     absolute magnetization    =     2.37 Bohr mag/cell

     iteration # 11     ecut=    40.00 Ry     beta= 0.70
     CG style diagonalization
     ethr =  1.72E-08,  avg # of iterations =  3.7

     negative rho (up, down):  4.796E-01 7.704E-03

     total cpu time spent up to now is      427.0 secs

     total energy              =   -1940.17815205 Ry
     Harris-Foulkes estimate   =   -1940.17814327 Ry
     estimated scf accuracy    <       0.00001426 Ry

     total magnetization       =     1.00 Bohr mag/cell
     absolute magnetization    =     2.38 Bohr mag/cell

     iteration # 12     ecut=    40.00 Ry     beta= 0.70
     CG style diagonalization
     ethr =  3.65E-09,  avg # of iterations =  3.9

     negative rho (up, down):  4.796E-01 7.748E-03

     total cpu time spent up to now is      461.9 secs

     total energy              =   -1940.17816008 Ry
     Harris-Foulkes estimate   =   -1940.17816003 Ry
     estimated scf accuracy    <       0.00000691 Ry

     total magnetization       =     1.00 Bohr mag/cell
     absolute magnetization    =     2.38 Bohr mag/cell

     iteration # 13     ecut=    40.00 Ry     beta= 0.70
     CG style diagonalization
     ethr =  1.77E-09,  avg # of iterations =  3.6

     negative rho (up, down):  4.795E-01 7.785E-03

     total cpu time spent up to now is      493.3 secs

     total energy              =   -1940.17816328 Ry
     Harris-Foulkes estimate   =   -1940.17816246 Ry
     estimated scf accuracy    <       0.00000110 Ry

     total magnetization       =     1.00 Bohr mag/cell
     absolute magnetization    =     2.39 Bohr mag/cell

     iteration # 14     ecut=    40.00 Ry     beta= 0.70
     CG style diagonalization
     ethr =  2.82E-10,  avg # of iterations =  4.0

     negative rho (up, down):  4.795E-01 7.797E-03

     total cpu time spent up to now is      529.2 secs

     total energy              =   -1940.17816403 Ry
     Harris-Foulkes estimate   =   -1940.17816424 Ry
     estimated scf accuracy    <       0.00000067 Ry

     total magnetization       =     1.00 Bohr mag/cell
     absolute magnetization    =     2.39 Bohr mag/cell

     iteration # 15     ecut=    40.00 Ry     beta= 0.70
     CG style diagonalization
     ethr =  1.71E-10,  avg # of iterations =  3.5

     negative rho (up, down):  4.795E-01 7.794E-03

     total cpu time spent up to now is      559.6 secs

     total energy              =   -1940.17816417 Ry
     Harris-Foulkes estimate   =   -1940.17816423 Ry
     estimated scf accuracy    <       0.00000014 Ry

     total magnetization       =     1.00 Bohr mag/cell
     absolute magnetization    =     2.39 Bohr mag/cell

     iteration # 16     ecut=    40.00 Ry     beta= 0.70
     CG style diagonalization
     ethr =  3.56E-11,  avg # of iterations =  3.6

     negative rho (up, down):  4.795E-01 7.795E-03

     total cpu time spent up to now is      591.3 secs

     total energy              =   -1940.17816422 Ry
     Harris-Foulkes estimate   =   -1940.17816425 Ry
     estimated scf accuracy    <       0.00000018 Ry

     total magnetization       =     1.00 Bohr mag/cell
     absolute magnetization    =     2.39 Bohr mag/cell

     iteration # 17     ecut=    40.00 Ry     beta= 0.70
     CG style diagonalization
     ethr =  3.56E-11,  avg # of iterations =  3.3

     negative rho (up, down):  4.795E-01 7.795E-03

     total cpu time spent up to now is      619.5 secs

     total energy              =   -1940.17816426 Ry
     Harris-Foulkes estimate   =   -1940.17816426 Ry
     estimated scf accuracy    <       0.00000002 Ry

     total magnetization       =     1.00 Bohr mag/cell
     absolute magnetization    =     2.39 Bohr mag/cell

     iteration # 18     ecut=    40.00 Ry     beta= 0.70
     CG style diagonalization
     ethr =  5.13E-12,  avg # of iterations =  3.6

     negative rho (up, down):  4.795E-01 7.795E-03

     total cpu time spent up to now is      650.0 secs

     total energy              =   -1940.17816427 Ry
     Harris-Foulkes estimate   =   -1940.17816427 Ry
     estimated scf accuracy    <          4.9E-09 Ry

     total magnetization       =     1.00 Bohr mag/cell
     absolute magnetization    =     2.39 Bohr mag/cell

     iteration # 19     ecut=    40.00 Ry     beta= 0.70
     CG style diagonalization
     ethr =  1.24E-12,  avg # of iterations =  3.6

     negative rho (up, down):  4.795E-01 7.793E-03

     total cpu time spent up to now is      681.5 secs

     total energy              =   -1940.17816427 Ry
     Harris-Foulkes estimate   =   -1940.17816427 Ry
     estimated scf accuracy    <          7.1E-10 Ry

     total magnetization       =     1.00 Bohr mag/cell
     absolute magnetization    =     2.39 Bohr mag/cell

     iteration # 20     ecut=    40.00 Ry     beta= 0.70
     CG style diagonalization
     ethr =  1.82E-13,  avg # of iterations =  4.0

     negative rho (up, down):  4.795E-01 7.793E-03

     total cpu time spent up to now is      717.3 secs

     total energy              =   -1940.17816427 Ry
     Harris-Foulkes estimate   =   -1940.17816427 Ry
     estimated scf accuracy    <          3.7E-10 Ry

     total magnetization       =     1.00 Bohr mag/cell
     absolute magnetization    =     2.39 Bohr mag/cell

     iteration # 21     ecut=    40.00 Ry     beta= 0.70
     CG style diagonalization
     ethr =  1.00E-13,  avg # of iterations =  3.5

     negative rho (up, down):  4.795E-01 7.793E-03
 
     Magnetic moment per site:
     atom:    1    charge:    0.8511    magn:   -0.0001    constr:    0.0000
     atom:    2    charge:    0.8461    magn:   -0.0005    constr:    0.0000
     atom:    3    charge:    0.8471    magn:   -0.0004    constr:    0.0000
     atom:    4    charge:    0.8492    magn:    0.0002    constr:    0.0000
     atom:    5    charge:    0.8521    magn:   -0.0010    constr:    0.0000
     atom:    6    charge:    0.8505    magn:    0.0002    constr:    0.0000
     atom:    7    charge:    0.8515    magn:   -0.0009    constr:    0.0000
     atom:    8    charge:    0.8504    magn:   -0.0008    constr:    0.0000
     atom:    9    charge:    0.8512    magn:   -0.0011    constr:    0.0000
     atom:   10    charge:    0.8431    magn:   -0.0037    constr:    0.0000
     atom:   11    charge:    0.8471    magn:   -0.0002    constr:    0.0000
     atom:   12    charge:    0.8527    magn:   -0.0015    constr:    0.0000
     atom:   13    charge:    0.8520    magn:    0.0002    constr:    0.0000
     atom:   14    charge:    0.8504    magn:    0.0002    constr:    0.0000
     atom:   15    charge:    0.8504    magn:   -0.0006    constr:    0.0000
     atom:   16    charge:    0.8559    magn:   -0.0061    constr:    0.0000
     atom:   17    charge:    0.8622    magn:   -0.0131    constr:    0.0000
     atom:   18    charge:    0.8503    magn:   -0.0104    constr:    0.0000
     atom:   19    charge:    0.8598    magn:   -0.0101    constr:    0.0000
     atom:   20    charge:    0.8527    magn:   -0.0015    constr:    0.0000
     atom:   21    charge:    0.8521    magn:   -0.0010    constr:    0.0000
     atom:   22    charge:    0.8469    magn:    0.0000    constr:    0.0000
     atom:   23    charge:    0.8436    magn:   -0.0005    constr:    0.0000
     atom:   24    charge:    0.8400    magn:   -0.0091    constr:    0.0000
     atom:   25    charge:    1.5848    magn:   -0.1486    constr:    0.0000
     atom:   26    charge:    0.8503    magn:   -0.0104    constr:    0.0000
     atom:   27    charge:    0.8471    magn:   -0.0002    constr:    0.0000
     atom:   28    charge:    0.8492    magn:    0.0002    constr:    0.0000
     atom:   29    charge:    0.8471    magn:   -0.0008    constr:    0.0000
     atom:   30    charge:    0.8473    magn:   -0.0000    constr:    0.0000
     atom:   31    charge:    0.8462    magn:   -0.0025    constr:    0.0000
     atom:   32    charge:    0.8400    magn:   -0.0091    constr:    0.0000
     atom:   33    charge:    0.8622    magn:   -0.0131    constr:    0.0000
     atom:   34    charge:    0.8431    magn:   -0.0036    constr:    0.0000
     atom:   35    charge:    0.8471    magn:   -0.0004    constr:    0.0000
     atom:   36    charge:    0.8460    magn:    0.0004    constr:    0.0000
     atom:   37    charge:    0.8455    magn:    0.0004    constr:    0.0000
     atom:   38    charge:    0.8473    magn:   -0.0000    constr:    0.0000
     atom:   39    charge:    0.8436    magn:   -0.0005    constr:    0.0000
     atom:   40    charge:    0.8559    magn:   -0.0061    constr:    0.0000
     atom:   41    charge:    0.8512    magn:   -0.0011    constr:    0.0000
     atom:   42    charge:    0.8461    magn:   -0.0005    constr:    0.0000
     atom:   43    charge:    0.8462    magn:   -0.0011    constr:    0.0000
     atom:   44    charge:    0.8460    magn:    0.0004    constr:    0.0000
     atom:   45    charge:    0.8471    magn:   -0.0008    constr:    0.0000
     atom:   46    charge:    0.8469    magn:    0.0000    constr:    0.0000
     atom:   47    charge:    0.8504    magn:   -0.0006    constr:    0.0000
     atom:   48    charge:    0.8504    magn:   -0.0008    constr:    0.0000
     atom:   49    charge:    0.8511    magn:   -0.0001    constr:    0.0000
     atom:   50    charge:    2.6493    magn:    0.0013    constr:    0.0000
     atom:   51    charge:    2.6500    magn:    0.0005    constr:    0.0000
     atom:   52    charge:    2.6374    magn:    0.0084    constr:    0.0000
     atom:   53    charge:    2.6486    magn:    0.0028    constr:    0.0000
     atom:   54    charge:    2.6504    magn:    0.0007    constr:    0.0000
     atom:   55    charge:    2.6407    magn:   -0.0001    constr:    0.0000
     atom:   56    charge:    2.6439    magn:   -0.0003    constr:    0.0000
     atom:   57    charge:    2.6460    magn:   -0.0018    constr:    0.0000
     atom:   58    charge:    2.6460    magn:    0.0060    constr:    0.0000
     atom:   59    charge:    2.6368    magn:    0.0305    constr:    0.0000
     atom:   60    charge:    2.6383    magn:    0.0147    constr:    0.0000
     atom:   61    charge:    2.6454    magn:    0.0100    constr:    0.0000
     atom:   62    charge:    2.6408    magn:    0.0025    constr:    0.0000
     atom:   63    charge:    2.6407    magn:   -0.0001    constr:    0.0000
     atom:   64    charge:    2.6487    magn:    0.0009    constr:    0.0000
     atom:   65    charge:    2.6479    magn:    0.0038    constr:    0.0000
     atom:   66    charge:    2.6480    magn:    0.0075    constr:    0.0000
     atom:   67    charge:    1.7453    magn:    0.1734    constr:    0.0000
     atom:   68    charge:    2.6364    magn:    0.0535    constr:    0.0000
     atom:   69    charge:    2.6454    magn:    0.0100    constr:    0.0000
     atom:   70    charge:    2.6504    magn:    0.0007    constr:    0.0000
     atom:   71    charge:    2.6490    magn:    0.0003    constr:    0.0000
     atom:   72    charge:    2.6439    magn:    0.0003    constr:    0.0000
     atom:   73    charge:    2.6381    magn:    0.0154    constr:    0.0000
     atom:   74    charge:    2.6070    magn:    0.1183    constr:    0.0000
     atom:   75    charge:    1.7454    magn:    0.1734    constr:    0.0000
     atom:   76    charge:    2.6383    magn:    0.0147    constr:    0.0000
     atom:   77    charge:    2.6486    magn:    0.0028    constr:    0.0000
     atom:   78    charge:    2.6468    magn:    0.0006    constr:    0.0000
     atom:   79    charge:    2.6431    magn:    0.0005    constr:    0.0000
     atom:   80    charge:    2.6348    magn:    0.0068    constr:    0.0000
     atom:   81    charge:    2.6381    magn:    0.0154    constr:    0.0000
     atom:   82    charge:    2.6480    magn:    0.0075    constr:    0.0000
     atom:   83    charge:    2.6368    magn:    0.0305    constr:    0.0000
     atom:   84    charge:    2.6374    magn:    0.0084    constr:    0.0000
     atom:   85    charge:    2.6459    magn:    0.0012    constr:    0.0000
     atom:   86    charge:    2.6446    magn:   -0.0001    constr:    0.0000
     atom:   87    charge:    2.6431    magn:    0.0005    constr:    0.0000
     atom:   88    charge:    2.6439    magn:    0.0003    constr:    0.0000
     atom:   89    charge:    2.6479    magn:    0.0038    constr:    0.0000
     atom:   90    charge:    2.6459    magn:    0.0060    constr:    0.0000
     atom:   91    charge:    2.6500    magn:    0.0005    constr:    0.0000
     atom:   92    charge:    2.6498    magn:    0.0003    constr:    0.0000
     atom:   93    charge:    2.6459    magn:    0.0012    constr:    0.0000
     atom:   94    charge:    2.6468    magn:    0.0006    constr:    0.0000
     atom:   95    charge:    2.6490    magn:    0.0003    constr:    0.0000
     atom:   96    charge:    2.6487    magn:    0.0009    constr:    0.0000
     atom:   97    charge:    2.6460    magn:   -0.0018    constr:    0.0000
     atom:   98    charge:    2.6493    magn:    0.0013    constr:    0.0000

     total cpu time spent up to now is      747.7 secs

     End of self-consistent calculation

 ------ SPIN UP ------------


          k = 0.0000 0.0000 0.0000 ( 77475 PWs)   bands (ev):

   -21.9108 -21.6553 -21.3927 -21.3844 -21.3574 -21.2992 -21.2829 -20.8954
   -20.6621 -20.6434 -20.6203 -20.5442 -20.5387 -20.4230 -20.2906 -20.2870
   -20.2688 -20.1286 -20.1135 -19.6009 -19.4260 -19.4051 -19.3906 -19.3882
   -19.3803 -19.3664 -19.3618 -19.3171 -19.3116 -19.1676 -19.1592 -19.0376
   -18.9683 -18.9654 -18.9366 -18.7751 -18.7656 -18.5550 -18.5414 -18.5236
   -18.5214 -18.4661 -18.4202 -18.3925 -18.3585 -18.3384 -18.3285 -16.8636
   -15.0377 -13.1823 -12.7774 -12.7766 -12.7425 -12.7131 -12.7075 -12.6424
   -12.5592 -12.5211 -12.5145 -12.4881 -12.4060 -12.1529 -12.0606 -12.0525
   -12.0217 -11.9924 -11.9396 -11.5709 -11.4292 -11.4120 -11.3923 -11.3871
   -11.3613 -11.3571 -11.3528 -11.3120 -11.3002 -11.1070 -11.0428 -10.8712
   -10.7175 -10.7017 -10.6745 -10.6499 -10.4990 -10.0812 -10.0303 -10.0100
    -9.9355  -9.8850  -9.8165  -9.4106  -9.3386  -9.3262  -9.3100  -9.2908
    -9.2735  -9.2191  -9.0716  -8.9639  -8.9623  -8.9129  -8.9084  -8.8961
    -8.8921  -8.8843  -8.8838  -8.8573  -8.8261  -8.8234  -8.8165  -8.8163
    -8.7937  -8.7935  -8.7903  -8.7458  -8.7336  -8.7009  -8.6570  -8.6424
    -8.4653  -8.4571  -8.2141  -8.1881  -8.1850  -8.1051  -8.0854  -7.9816
    -7.8751  -7.8327  -7.8184  -7.7930  -7.7214  -7.7210  -7.5803  -7.5197
    -7.5019  -7.4707  -7.4607  -7.4451  -7.4267  -7.3918  -7.3893  -7.3373
    -7.3367  -7.3354  -7.3220  -7.2823  -7.2329  -7.2300  -7.2008  -7.0378
    -7.0353  -6.9938  -6.9078  -6.8236  -6.6559  -6.5534  -6.2936  -6.2005
    -6.1873  -6.1465  -6.0983  -6.0771  -6.0743  -6.0639  -6.0591  -6.0555
    -6.0353  -6.0311  -6.0081  -5.9852  -5.8863  -5.8309  -5.8073  -5.7188
    -5.5419  -5.4498  -5.4376  -5.4340  -5.3517  -5.2739  -5.1586  -5.1113
    -4.8069  -4.8043  -4.7760  -4.7601  -4.6958  -4.6754  -4.5791  -4.5167
    -4.4944  -4.4938  -4.4592  -3.6469   0.1845   0.2777   0.6817   0.7013
     0.7136   0.7283   0.7374   0.7421   0.7889   0.8067   0.8082   0.8109
     0.8183   0.8398   0.8529   0.8616   0.8905   0.9154   0.9282   0.9466
     0.9981   1.1488   1.2136   1.2484   1.2645   1.2937   1.3037   1.3185
     1.3253   1.3311   1.3477   1.3629   1.4096   1.4350   1.4382   1.4422
     1.4517   1.4601   1.4840   1.8873   2.0988   2.1016   2.1051   2.1147
     2.1203   2.1406   2.1472   2.2106   2.2564

 ------ SPIN DOWN ----------


          k = 0.0000 0.0000 0.0000 ( 77475 PWs)   bands (ev):

   -21.8459 -21.6303 -21.3901 -21.3804 -21.3544 -21.2879 -21.2628 -20.8710
   -20.6540 -20.6321 -20.6141 -20.5377 -20.5295 -20.4165 -20.2830 -20.2777
   -20.2493 -20.1067 -20.1003 -19.5769 -19.4153 -19.3980 -19.3859 -19.3814
   -19.3715 -19.3611 -19.3477 -19.3011 -19.2968 -19.1530 -19.1478 -19.0273
   -18.9597 -18.9579 -18.9151 -18.7602 -18.7479 -18.5421 -18.5318 -18.5105
   -18.5064 -18.4580 -18.4001 -18.3849 -18.3478 -18.3307 -18.3097 -16.6302
   -14.6790 -13.1754 -12.7761 -12.7743 -12.7415 -12.7121 -12.7073 -12.6428
   -12.5576 -12.5202 -12.5119 -12.4734 -12.4050 -12.1484 -12.0600 -12.0486
   -12.0148 -11.9823 -11.9329 -11.5641 -11.4219 -11.4108 -11.3905 -11.3840
   -11.3602 -11.3551 -11.3492 -11.3034 -11.2898 -11.0590 -11.0264 -10.8753
   -10.7167 -10.7018 -10.6695 -10.6442 -10.4955 -10.0749 -10.0275 -10.0017
    -9.9240  -9.8622  -9.8013  -9.4063  -9.3192  -9.3134  -9.3054  -9.2850
    -9.2718  -9.2145  -9.0662  -8.9505  -8.9093  -8.9054  -8.9047  -8.8920
    -8.8913  -8.8822  -8.8793  -8.8548  -8.8238  -8.8170  -8.8153  -8.8094
    -8.7923  -8.7885  -8.7863  -8.7254  -8.7139  -8.6429  -8.6351  -8.6309
    -8.4558  -8.4214  -8.2121  -8.1850  -8.1827  -8.0858  -8.0758  -7.9261
    -7.8567  -7.8211  -7.8012  -7.7855  -7.7030  -7.6867  -7.5730  -7.5100
    -7.4997  -7.4693  -7.4440  -7.4379  -7.4263  -7.3891  -7.3866  -7.3321
    -7.3272  -7.3204  -7.2915  -7.2691  -7.2169  -7.1676  -7.1640  -7.0333
    -7.0172  -6.9918  -6.8818  -6.7952  -6.6294  -6.5247  -6.2477  -6.1959
    -6.1762  -6.1434  -6.0812  -6.0657  -6.0557  -6.0501  -6.0449  -6.0419
    -6.0248  -6.0119  -5.9678  -5.9638  -5.8074  -5.8045  -5.7674  -5.6888
    -5.5183  -5.4379  -5.4256  -5.3994  -5.2547  -5.2021  -5.0808  -5.0242
    -4.7761  -4.7689  -4.7482  -4.7339  -4.6539  -4.6284  -4.5532  -4.4965
    -4.4823  -4.4720  -4.0625  -2.8337  -0.0015   0.1770   0.6705   0.6781
     0.7065   0.7247   0.7321   0.7389   0.7842   0.7928   0.8053   0.8090
     0.8155   0.8338   0.8430   0.8512   0.8781   0.9021   0.9165   0.9499
     0.9661   1.1331   1.2256   1.2295   1.2536   1.2715   1.3146   1.3226
     1.3283   1.3336   1.3420   1.3633   1.3865   1.4350   1.4386   1.4421
     1.4513   1.4592   1.4812   1.8829   2.0905   2.0951   2.0955   2.1090
     2.1093   2.1266   2.1366   2.2098   2.2760

     highest occupied, lowest unoccupied level (ev):    -3.6469   -4.0625

!    total energy              =   -1940.17816427 Ry
     Harris-Foulkes estimate   =   -1940.17816427 Ry
     estimated scf accuracy    <          3.5E-11 Ry

     total all-electron energy =     -7770.002641 Ry

     The total energy is the sum of the following terms:

     one-electron contribution =  -10643.57609900 Ry
     hartree contribution      =    5407.37674405 Ry
     xc contribution           =    -430.67596448 Ry
     ewald contribution        =    4370.14442005 Ry
     DFT-D3 Dispersion         =      -0.27012401 Ry
     one-center paw contrib.   =    -643.17714089 Ry

     total magnetization       =     1.00 Bohr mag/cell
     absolute magnetization    =     2.39 Bohr mag/cell

     convergence has been achieved in  21 iterations

     negative rho (up, down):  4.795E-01 7.793E-03

     Forces acting on atoms (cartesian axes, Ry/au):

     atom    1 type  1   force =    -0.00001569   -0.00005757    0.00000000
     atom    2 type  1   force =    -0.00005437    0.00002864    0.00000000
     atom    3 type  1   force =    -0.00000540   -0.00001761    0.00000000
     atom    4 type  1   force =    -0.00004707   -0.00004065    0.00000000
     atom    5 type  1   force =    -0.00006242   -0.00009598    0.00000000
     atom    6 type  1   force =    -0.00001223   -0.00004377    0.00000000
     atom    7 type  1   force =    -0.00005541   -0.00007072    0.00000000
     atom    8 type  1   force =     0.00000105   -0.00003821    0.00000000
     atom    9 type  1   force =     0.00005504    0.00003365    0.00000000
     atom   10 type  1   force =     0.00011195    0.00001832    0.00000000
     atom   11 type  1   force =     0.00002351   -0.00007418    0.00000000
     atom   12 type  1   force =    -0.00000669   -0.00003963    0.00000000
     atom   13 type  1   force =    -0.00002215   -0.00004205    0.00000000
     atom   14 type  1   force =    -0.00001493   -0.00006900    0.00000000
     atom   15 type  1   force =    -0.00004553    0.00004672    0.00000000
     atom   16 type  1   force =    -0.00005115   -0.00001635    0.00000000
     atom   17 type  1   force =     0.00005573    0.00001818    0.00000000
     atom   18 type  1   force =     0.00008023    0.00002732    0.00000000
     atom   19 type  1   force =    -0.00002305    0.00001076    0.00000000
     atom   20 type  1   force =     0.00003669   -0.00003190    0.00000000
     atom   21 type  1   force =     0.00006192    0.00004703    0.00000000
     atom   22 type  1   force =     0.00006053    0.00005177    0.00000000
     atom   23 type  1   force =    -0.00003325    0.00011040    0.00000000
     atom   24 type  1   force =    -0.00009921    0.00002163    0.00000000
     atom   25 type  4   force =     0.00005910   -0.00000708    0.00000000
     atom   26 type  1   force =     0.00000429   -0.00006804    0.00000000
     atom   27 type  1   force =     0.00008149   -0.00000342    0.00000000
     atom   28 type  1   force =     0.00004836    0.00003629    0.00000000
     atom   29 type  1   force =     0.00007002    0.00009196    0.00000000
     atom   30 type  1   force =     0.00002496    0.00006160    0.00000000
     atom   31 type  1   force =    -0.00008557    0.00005731    0.00000000
     atom   32 type  1   force =    -0.00005712    0.00007062    0.00000000
     atom   33 type  1   force =     0.00002862   -0.00004131    0.00000000
     atom   34 type  1   force =     0.00003976   -0.00008596    0.00000000
     atom   35 type  1   force =     0.00004661    0.00001161    0.00000000
     atom   36 type  1   force =    -0.00005828    0.00004413    0.00000000
     atom   37 type  1   force =     0.00000267    0.00001476    0.00000000
     atom   38 type  1   force =    -0.00003045   -0.00000958    0.00000000
     atom   39 type  1   force =    -0.00008595    0.00000633    0.00000000
     atom   40 type  1   force =     0.00005251    0.00010431    0.00000000
     atom   41 type  1   force =     0.00006782   -0.00003300    0.00000000
     atom   42 type  1   force =    -0.00000605    0.00000284    0.00000000
     atom   43 type  1   force =    -0.00006842    0.00000504    0.00000000
     atom   44 type  1   force =    -0.00009238    0.00004125    0.00000000
     atom   45 type  1   force =    -0.00006482   -0.00005521    0.00000000
     atom   46 type  1   force =    -0.00001781   -0.00002799    0.00000000
     atom   47 type  1   force =    -0.00003583    0.00005185    0.00000000
     atom   48 type  1   force =     0.00006008   -0.00000655    0.00000000
     atom   49 type  1   force =     0.00003723   -0.00006713    0.00000000
     atom   50 type  2   force =     0.00007622    0.00003735    0.00000000
     atom   51 type  2   force =     0.00007014    0.00002631    0.00000000
     atom   52 type  2   force =     0.00006290    0.00002257    0.00000000
     atom   53 type  2   force =     0.00003437   -0.00001298    0.00000000
     atom   54 type  2   force =     0.00006993   -0.00006893    0.00000000
     atom   55 type  2   force =     0.00006277   -0.00001919    0.00000000
     atom   56 type  2   force =     0.00005577    0.00005220    0.00000000
     atom   57 type  2   force =     0.00001759   -0.00002086    0.00000000
     atom   58 type  2   force =     0.00000746   -0.00009668    0.00000000
     atom   59 type  2   force =     0.00008448   -0.00004333    0.00000000
     atom   60 type  2   force =     0.00009504    0.00006114    0.00000000
     atom   61 type  2   force =    -0.00003033   -0.00000042    0.00000000
     atom   62 type  2   force =     0.00004695    0.00000723    0.00000000
     atom   63 type  2   force =     0.00006687    0.00003948    0.00000000
     atom   64 type  2   force =    -0.00000527    0.00007609    0.00000000
     atom   65 type  2   force =    -0.00003659    0.00004337    0.00000000
     atom   66 type  2   force =    -0.00000064    0.00001112    0.00000000
     atom   67 type  3   force =     0.00007091   -0.00001610    0.00000000
     atom   68 type  2   force =    -0.00003654    0.00004189    0.00000000
     atom   69 type  2   force =    -0.00001759    0.00005784    0.00000000
     atom   70 type  2   force =     0.00007108    0.00001911    0.00000000
     atom   71 type  2   force =     0.00004858    0.00003351    0.00000000
     atom   72 type  2   force =    -0.00002735    0.00006961    0.00000000
     atom   73 type  2   force =    -0.00009682    0.00007074    0.00000000
     atom   74 type  2   force =    -0.00001453    0.00001415    0.00000000
     atom   75 type  5   force =     0.00003319   -0.00008560    0.00000000
     atom   76 type  2   force =    -0.00002298   -0.00012422    0.00000000
     atom   77 type  2   force =    -0.00000854   -0.00002088    0.00000000
     atom   78 type  2   force =    -0.00005516   -0.00003461    0.00000000
     atom   79 type  2   force =    -0.00002979    0.00007345    0.00000000
     atom   80 type  2   force =    -0.00008176    0.00003133    0.00000000
     atom   81 type  2   force =    -0.00013434    0.00003860    0.00000000
     atom   82 type  2   force =    -0.00006453   -0.00003511    0.00000000
     atom   83 type  2   force =     0.00003571   -0.00009456    0.00000000
     atom   84 type  2   force =    -0.00003052   -0.00008227    0.00000000
     atom   85 type  2   force =    -0.00010614    0.00000085    0.00000000
     atom   86 type  2   force =    -0.00008272    0.00005799    0.00000000
     atom   87 type  2   force =    -0.00007512   -0.00004196    0.00000000
     atom   88 type  2   force =    -0.00009071   -0.00005965    0.00000000
     atom   89 type  2   force =    -0.00010630   -0.00003681    0.00000000
     atom   90 type  2   force =     0.00003526    0.00000420    0.00000000
     atom   91 type  2   force =    -0.00001523   -0.00004313    0.00000000
     atom   92 type  2   force =     0.00005745    0.00004967    0.00000000
     atom   93 type  2   force =    -0.00001120    0.00011766    0.00000000
     atom   94 type  2   force =     0.00002520    0.00003127    0.00000000
     atom   95 type  2   force =     0.00002057   -0.00010917    0.00000000
     atom   96 type  2   force =    -0.00004572   -0.00005802    0.00000000
     atom   97 type  2   force =     0.00005774    0.00001796    0.00000000
     atom   98 type  2   force =     0.00006126    0.00002634    0.00000000

     Total force =     0.000764     Total SCF correction =     0.000009


     Computing stress (Cartesian axis) and pressure


     negative rho (up, down):  4.795E-01 7.793E-03
          total   stress  (Ry/bohr**3)                   (kbar)     P=   -0.18
  -0.00000019   0.00000001   0.00000000         -0.03      0.00      0.00
   0.00000001  -0.00000017   0.00000000          0.00     -0.03      0.00
   0.00000000   0.00000000  -0.00000334          0.00      0.00     -0.49


     BFGS Geometry Optimization

     number of scf cycles    =   1
     number of bfgs steps    =   0

     enthalpy new            =   -1940.1781642721 Ry

     new trust radius        =       0.0001788250 bohr
     new conv_thr            =            1.0E-10 Ry

     new unit-cell volume =  36235.68587 a.u.^3 (  5369.57459 Ang^3 )
     density =      0.36306 g/cm^3

CELL_PARAMETERS (alat= 33.23461096)
   1.001033779   0.000196430   0.000000000
  -0.500346776   0.867018864   0.000000000
   0.000000000   0.000000000   1.137203616

ATOMIC_POSITIONS (crystal)
B        0.047258038   0.094670116   0.500000000
B        0.047316416   0.237769025   0.500000000
B        0.047280051   0.380908748   0.500000000
B        0.047208503   0.523769330   0.500000000
B        0.047674302   0.666648166   0.500000000
B        0.047938746   0.809627550   0.500000000
B        0.047706827   0.952290153   0.500000000
B        0.189874783   0.094283442   0.500000000
B        0.189157376   0.236443469   0.500000000
B        0.190034716   0.380746042   0.500000000
B        0.189479479   0.523737575   0.500000000
B        0.189677254   0.666786792   0.500000000
B        0.190377569   0.809620822   0.500000000
B        0.190370614   0.952059179   0.500000000
B        0.333168557   0.094249732   0.500000000
B        0.332550498   0.235898963   0.500000000
B        0.331307617   0.377101245   0.500000000
B        0.332341274   0.525247520   0.500000000
B        0.331933770   0.668065681   0.500000000
B        0.333212673   0.810321779   0.500000000
B        0.333351515   0.952324818   0.500000000
B        0.476233808   0.095099728   0.500000000
B        0.476000640   0.237619928   0.500000000
B        0.474738918   0.379464131   0.500000000
C2       0.477582639   0.522418014   0.500000000
B        0.474752266   0.667658401   0.500000000
B        0.476262658   0.810520315   0.500000000
B        0.476231229   0.952791385   0.500000000
B        0.618969888   0.095280071   0.500000000
B        0.618987500   0.237996140   0.500000000
B        0.619053332   0.380946995   0.500000000
B        0.620536026   0.525261242   0.500000000
B        0.622899903   0.668692880   0.500000000
B        0.619254870   0.809965640   0.500000000
B        0.619092133   0.952720114   0.500000000
B        0.761858898   0.095313646   0.500000000
B        0.761826636   0.238173697   0.500000000
B        0.762004356   0.381013360   0.500000000
B        0.762380798   0.524000199   0.500000000
B        0.764102575   0.667450416   0.500000000
B        0.763557689   0.810842879   0.500000000
B        0.762231543   0.952683095   0.500000000
B        0.904818581   0.095180435   0.500000000
B        0.904686094   0.238141345   0.500000000
B        0.904720191   0.381031158   0.500000000
B        0.904900773   0.523767263   0.500000000
B        0.905750799   0.666832005   0.500000000
B        0.905716259   0.810124497   0.500000000
B        0.905328444   0.952739696   0.500000000
N        0.094940690   0.047179116   0.500000000
N        0.094393219   0.189594022   0.500000000
N        0.094858060   0.333130760   0.500000000
N        0.094524898   0.476047692   0.500000000
N        0.094738317   0.618918533   0.500000000
N        0.095294834   0.761890257   0.500000000
N        0.095320151   0.904681932   0.500000000
N        0.237933116   0.047049667   0.500000000
N        0.237228048   0.189133130   0.500000000
N        0.236489621   0.331417157   0.500000000
N        0.237064493   0.476256992   0.500000000
N        0.236785633   0.619240413   0.500000000
N        0.237870354   0.762130429   0.500000000
N        0.238110777   0.904706614   0.500000000
N        0.381097524   0.047313147   0.500000000
N        0.380898951   0.189217214   0.500000000
N        0.379849332   0.330149317   0.500000000
C1       0.382791416   0.475904299   0.500000000
N        0.378908618   0.621091343   0.500000000
N        0.380759686   0.763214687   0.500000000
N        0.381081609   0.905262723   0.500000000
N        0.523915101   0.047836501   0.500000000
N        0.523866093   0.190458547   0.500000000
N        0.523609617   0.333489452   0.500000000
N        0.523091700   0.476908348   0.500000000
C3       0.524095811   0.617208025   0.500000000
N        0.523743040   0.762935167   0.500000000
N        0.523952070   0.905475557   0.500000000
N        0.666688446   0.047857898   0.500000000
N        0.666607231   0.190561634   0.500000000
N        0.666538140   0.333461351   0.500000000
N        0.666510051   0.476390312   0.500000000
N        0.669849881   0.620150195   0.500000000
N        0.668582085   0.763509525   0.500000000
N        0.666868738   0.905141752   0.500000000
N        0.809602174   0.047790845   0.500000000
N        0.809437382   0.190562856   0.500000000
N        0.809438108   0.333392222   0.500000000
N        0.809540747   0.476133225   0.500000000
N        0.810781483   0.619100261   0.500000000
N        0.810865380   0.762771037   0.500000000
N        0.810405513   0.905606952   0.500000000
N        0.952395693   0.047606131   0.500000000
N        0.952210057   0.190398274   0.500000000
N        0.952142357   0.333311116   0.500000000
N        0.952163711   0.476084226   0.500000000
N        0.952687002   0.618902171   0.500000000
N        0.952950656   0.762067170   0.500000000
N        0.952822356   0.905060995   0.500000000



     Writing output data file C2Cn.save/
     NEW-OLD atomic charge density approx. for the potential
     NEW k-points:
   0.0000000   0.0000000   0.0000000   1.0000000
   0.0000000   0.0000000   0.0000000   1.0000000

     Check: negative core charge=   -0.000006

     negative rho (up, down):  4.795E-01 3.945E-03
     extrapolated charge  390.99648, renormalised to  391.00000

     total cpu time spent up to now is      768.3 secs

     Self-consistent Calculation

     iteration #  1     ecut=    40.00 Ry     beta= 0.70
     CG style diagonalization
     ethr =  1.00E-06,  avg # of iterations =  2.0

     Threshold (ethr) on eigenvalues was too large:
     Diagonalizing with lowered threshold

     CG style diagonalization
     ethr =  4.22E-11,  avg # of iterations = 16.1

     negative rho (up, down):  4.796E-01 7.196E-03

     total cpu time spent up to now is      958.3 secs

     total energy              =   -1940.17816558 Ry
     Harris-Foulkes estimate   =   -1940.27108111 Ry
     estimated scf accuracy    <       0.00000033 Ry

     total magnetization       =     1.00 Bohr mag/cell
     absolute magnetization    =     2.39 Bohr mag/cell

     iteration #  2     ecut=    40.00 Ry     beta= 0.70
     CG style diagonalization
     ethr =  8.43E-11,  avg # of iterations =  4.4

     negative rho (up, down):  4.796E-01 7.344E-03

     total cpu time spent up to now is      998.4 secs

     total energy              =   -1940.17816557 Ry
     Harris-Foulkes estimate   =   -1940.17816607 Ry
     estimated scf accuracy    <       0.00000061 Ry

     total magnetization       =     1.00 Bohr mag/cell
     absolute magnetization    =     2.39 Bohr mag/cell

     iteration #  3     ecut=    40.00 Ry     beta= 0.70
     CG style diagonalization
     ethr =  8.43E-11,  avg # of iterations =  3.6

     negative rho (up, down):  4.795E-01 7.534E-03

     total cpu time spent up to now is     1029.5 secs

     total energy              =   -1940.17816532 Ry
     Harris-Foulkes estimate   =   -1940.17816564 Ry
     estimated scf accuracy    <       0.00000005 Ry

     total magnetization       =     1.00 Bohr mag/cell
     absolute magnetization    =     2.39 Bohr mag/cell

     iteration #  4     ecut=    40.00 Ry     beta= 0.70
     CG style diagonalization
     ethr =  1.23E-11,  avg # of iterations =  3.8

     negative rho (up, down):  4.795E-01 7.674E-03

     total cpu time spent up to now is     1063.2 secs

     total energy              =   -1940.17816500 Ry
     Harris-Foulkes estimate   =   -1940.17816533 Ry
     estimated scf accuracy    <       0.00000002 Ry

     total magnetization       =     1.00 Bohr mag/cell
     absolute magnetization    =     2.39 Bohr mag/cell

     iteration #  5     ecut=    40.00 Ry     beta= 0.70
     CG style diagonalization
     ethr =  5.16E-12,  avg # of iterations =  3.3

     negative rho (up, down):  4.795E-01 7.723E-03

     total cpu time spent up to now is     1091.0 secs

     total energy              =   -1940.17816484 Ry
     Harris-Foulkes estimate   =   -1940.17816500 Ry
     estimated scf accuracy    <          1.6E-09 Ry

     total magnetization       =     1.00 Bohr mag/cell
     absolute magnetization    =     2.39 Bohr mag/cell

     iteration #  6     ecut=    40.00 Ry     beta= 0.70
     CG style diagonalization
     ethr =  4.03E-13,  avg # of iterations =  3.7

     negative rho (up, down):  4.795E-01 7.769E-03

     total cpu time spent up to now is     1123.1 secs

     total energy              =   -1940.17816472 Ry
     Harris-Foulkes estimate   =   -1940.17816484 Ry
     estimated scf accuracy    <          1.5E-09 Ry

     total magnetization       =     1.00 Bohr mag/cell
     absolute magnetization    =     2.39 Bohr mag/cell

     iteration #  7     ecut=    40.00 Ry     beta= 0.70
     CG style diagonalization
     ethr =  3.77E-13,  avg # of iterations =  3.3

     negative rho (up, down):  4.795E-01 7.776E-03

     total cpu time spent up to now is     1150.2 secs

     total energy              =   -1940.17816470 Ry
     Harris-Foulkes estimate   =   -1940.17816472 Ry
     estimated scf accuracy    <          1.1E-10 Ry

     total magnetization       =     1.00 Bohr mag/cell
     absolute magnetization    =     2.39 Bohr mag/cell

     iteration #  8     ecut=    40.00 Ry     beta= 0.70
     CG style diagonalization
     ethr =  1.00E-13,  avg # of iterations =  3.1

     negative rho (up, down):  4.795E-01 7.785E-03
 
     Magnetic moment per site:
     atom:    1    charge:    0.8511    magn:   -0.0001    constr:    0.0000
     atom:    2    charge:    0.8461    magn:   -0.0005    constr:    0.0000
     atom:    3    charge:    0.8471    magn:   -0.0004    constr:    0.0000
     atom:    4    charge:    0.8492    magn:    0.0002    constr:    0.0000
     atom:    5    charge:    0.8521    magn:   -0.0010    constr:    0.0000
     atom:    6    charge:    0.8504    magn:    0.0002    constr:    0.0000
     atom:    7    charge:    0.8515    magn:   -0.0009    constr:    0.0000
     atom:    8    charge:    0.8504    magn:   -0.0008    constr:    0.0000
     atom:    9    charge:    0.8512    magn:   -0.0011    constr:    0.0000
     atom:   10    charge:    0.8431    magn:   -0.0037    constr:    0.0000
     atom:   11    charge:    0.8471    magn:   -0.0002    constr:    0.0000
     atom:   12    charge:    0.8527    magn:   -0.0015    constr:    0.0000
     atom:   13    charge:    0.8520    magn:    0.0002    constr:    0.0000
     atom:   14    charge:    0.8505    magn:    0.0002    constr:    0.0000
     atom:   15    charge:    0.8504    magn:   -0.0006    constr:    0.0000
     atom:   16    charge:    0.8559    magn:   -0.0061    constr:    0.0000
     atom:   17    charge:    0.8622    magn:   -0.0131    constr:    0.0000
     atom:   18    charge:    0.8503    magn:   -0.0104    constr:    0.0000
     atom:   19    charge:    0.8598    magn:   -0.0101    constr:    0.0000
     atom:   20    charge:    0.8527    magn:   -0.0015    constr:    0.0000
     atom:   21    charge:    0.8521    magn:   -0.0010    constr:    0.0000
     atom:   22    charge:    0.8469    magn:    0.0000    constr:    0.0000
     atom:   23    charge:    0.8435    magn:   -0.0005    constr:    0.0000
     atom:   24    charge:    0.8400    magn:   -0.0091    constr:    0.0000
     atom:   25    charge:    1.5848    magn:   -0.1486    constr:    0.0000
     atom:   26    charge:    0.8503    magn:   -0.0104    constr:    0.0000
     atom:   27    charge:    0.8471    magn:   -0.0002    constr:    0.0000
     atom:   28    charge:    0.8492    magn:    0.0002    constr:    0.0000
     atom:   29    charge:    0.8471    magn:   -0.0008    constr:    0.0000
     atom:   30    charge:    0.8473    magn:   -0.0000    constr:    0.0000
     atom:   31    charge:    0.8462    magn:   -0.0025    constr:    0.0000
     atom:   32    charge:    0.8400    magn:   -0.0091    constr:    0.0000
     atom:   33    charge:    0.8622    magn:   -0.0131    constr:    0.0000
     atom:   34    charge:    0.8431    magn:   -0.0037    constr:    0.0000
     atom:   35    charge:    0.8471    magn:   -0.0004    constr:    0.0000
     atom:   36    charge:    0.8460    magn:    0.0004    constr:    0.0000
     atom:   37    charge:    0.8455    magn:    0.0004    constr:    0.0000
     atom:   38    charge:    0.8473    magn:   -0.0000    constr:    0.0000
     atom:   39    charge:    0.8435    magn:   -0.0005    constr:    0.0000
     atom:   40    charge:    0.8559    magn:   -0.0061    constr:    0.0000
     atom:   41    charge:    0.8512    magn:   -0.0011    constr:    0.0000
     atom:   42    charge:    0.8461    magn:   -0.0005    constr:    0.0000
     atom:   43    charge:    0.8461    magn:   -0.0011    constr:    0.0000
     atom:   44    charge:    0.8460    magn:    0.0004    constr:    0.0000
     atom:   45    charge:    0.8471    magn:   -0.0008    constr:    0.0000
     atom:   46    charge:    0.8469    magn:    0.0000    constr:    0.0000
     atom:   47    charge:    0.8504    magn:   -0.0006    constr:    0.0000
     atom:   48    charge:    0.8504    magn:   -0.0008    constr:    0.0000
     atom:   49    charge:    0.8511    magn:   -0.0001    constr:    0.0000
     atom:   50    charge:    2.6493    magn:    0.0013    constr:    0.0000
     atom:   51    charge:    2.6499    magn:    0.0005    constr:    0.0000
     atom:   52    charge:    2.6374    magn:    0.0084    constr:    0.0000
     atom:   53    charge:    2.6486    magn:    0.0028    constr:    0.0000
     atom:   54    charge:    2.6504    magn:    0.0007    constr:    0.0000
     atom:   55    charge:    2.6407    magn:   -0.0001    constr:    0.0000
     atom:   56    charge:    2.6439    magn:   -0.0003    constr:    0.0000
     atom:   57    charge:    2.6460    magn:   -0.0018    constr:    0.0000
     atom:   58    charge:    2.6460    magn:    0.0060    constr:    0.0000
     atom:   59    charge:    2.6368    magn:    0.0305    constr:    0.0000
     atom:   60    charge:    2.6383    magn:    0.0147    constr:    0.0000
     atom:   61    charge:    2.6454    magn:    0.0100    constr:    0.0000
     atom:   62    charge:    2.6408    magn:    0.0026    constr:    0.0000
     atom:   63    charge:    2.6407    magn:   -0.0001    constr:    0.0000
     atom:   64    charge:    2.6487    magn:    0.0009    constr:    0.0000
     atom:   65    charge:    2.6479    magn:    0.0038    constr:    0.0000
     atom:   66    charge:    2.6480    magn:    0.0075    constr:    0.0000
     atom:   67    charge:    1.7453    magn:    0.1734    constr:    0.0000
     atom:   68    charge:    2.6364    magn:    0.0535    constr:    0.0000
     atom:   69    charge:    2.6454    magn:    0.0100    constr:    0.0000
     atom:   70    charge:    2.6504    magn:    0.0007    constr:    0.0000
     atom:   71    charge:    2.6490    magn:    0.0003    constr:    0.0000
     atom:   72    charge:    2.6439    magn:    0.0003    constr:    0.0000
     atom:   73    charge:    2.6381    magn:    0.0154    constr:    0.0000
     atom:   74    charge:    2.6070    magn:    0.1183    constr:    0.0000
     atom:   75    charge:    1.7454    magn:    0.1734    constr:    0.0000
     atom:   76    charge:    2.6382    magn:    0.0147    constr:    0.0000
     atom:   77    charge:    2.6486    magn:    0.0028    constr:    0.0000
     atom:   78    charge:    2.6468    magn:    0.0006    constr:    0.0000
     atom:   79    charge:    2.6431    magn:    0.0005    constr:    0.0000
     atom:   80    charge:    2.6348    magn:    0.0068    constr:    0.0000
     atom:   81    charge:    2.6381    magn:    0.0154    constr:    0.0000
     atom:   82    charge:    2.6480    magn:    0.0075    constr:    0.0000
     atom:   83    charge:    2.6368    magn:    0.0305    constr:    0.0000
     atom:   84    charge:    2.6374    magn:    0.0084    constr:    0.0000
     atom:   85    charge:    2.6459    magn:    0.0012    constr:    0.0000
     atom:   86    charge:    2.6446    magn:   -0.0001    constr:    0.0000
     atom:   87    charge:    2.6431    magn:    0.0005    constr:    0.0000
     atom:   88    charge:    2.6439    magn:    0.0003    constr:    0.0000
     atom:   89    charge:    2.6479    magn:    0.0038    constr:    0.0000
     atom:   90    charge:    2.6460    magn:    0.0060    constr:    0.0000
     atom:   91    charge:    2.6499    magn:    0.0005    constr:    0.0000
     atom:   92    charge:    2.6498    magn:    0.0003    constr:    0.0000
     atom:   93    charge:    2.6459    magn:    0.0012    constr:    0.0000
     atom:   94    charge:    2.6468    magn:    0.0006    constr:    0.0000
     atom:   95    charge:    2.6490    magn:    0.0003    constr:    0.0000
     atom:   96    charge:    2.6487    magn:    0.0009    constr:    0.0000
     atom:   97    charge:    2.6460    magn:   -0.0018    constr:    0.0000
     atom:   98    charge:    2.6493    magn:    0.0013    constr:    0.0000

     total cpu time spent up to now is     1175.4 secs

     End of self-consistent calculation

 ------ SPIN UP ------------


          k = 0.0000 0.0000 0.0000 ( 77475 PWs)   bands (ev):

   -21.9110 -21.6554 -21.3927 -21.3845 -21.3574 -21.2992 -21.2829 -20.8954
   -20.6620 -20.6434 -20.6203 -20.5443 -20.5388 -20.4231 -20.2907 -20.2870
   -20.2688 -20.1286 -20.1135 -19.6010 -19.4260 -19.4052 -19.3906 -19.3881
   -19.3804 -19.3665 -19.3617 -19.3172 -19.3116 -19.1677 -19.1592 -19.0376
   -18.9683 -18.9654 -18.9366 -18.7752 -18.7656 -18.5550 -18.5414 -18.5237
   -18.5214 -18.4661 -18.4202 -18.3925 -18.3585 -18.3384 -18.3284 -16.8637
   -15.0378 -13.1823 -12.7774 -12.7766 -12.7426 -12.7132 -12.7076 -12.6425
   -12.5592 -12.5212 -12.5146 -12.4881 -12.4060 -12.1530 -12.0607 -12.0524
   -12.0218 -11.9924 -11.9396 -11.5710 -11.4292 -11.4121 -11.3923 -11.3871
   -11.3613 -11.3570 -11.3528 -11.3120 -11.3002 -11.1070 -11.0429 -10.8711
   -10.7175 -10.7018 -10.6745 -10.6499 -10.4990 -10.0812 -10.0303 -10.0100
    -9.9355  -9.8850  -9.8166  -9.4106  -9.3387  -9.3262  -9.3100  -9.2908
    -9.2735  -9.2191  -9.0716  -8.9639  -8.9623  -8.9129  -8.9083  -8.8960
    -8.8920  -8.8843  -8.8837  -8.8573  -8.8261  -8.8234  -8.8165  -8.8164
    -8.7936  -8.7935  -8.7903  -8.7459  -8.7336  -8.7009  -8.6570  -8.6424
    -8.4653  -8.4570  -8.2141  -8.1881  -8.1851  -8.1051  -8.0854  -7.9816
    -7.8750  -7.8326  -7.8184  -7.7930  -7.7215  -7.7210  -7.5803  -7.5195
    -7.5019  -7.4707  -7.4607  -7.4451  -7.4268  -7.3919  -7.3893  -7.3374
    -7.3366  -7.3354  -7.3220  -7.2823  -7.2328  -7.2300  -7.2008  -7.0377
    -7.0355  -6.9937  -6.9078  -6.8235  -6.6559  -6.5533  -6.2937  -6.2005
    -6.1871  -6.1465  -6.0983  -6.0771  -6.0744  -6.0639  -6.0590  -6.0555
    -6.0353  -6.0310  -6.0081  -5.9852  -5.8863  -5.8310  -5.8073  -5.7187
    -5.5419  -5.4499  -5.4376  -5.4340  -5.3517  -5.2739  -5.1585  -5.1112
    -4.8069  -4.8042  -4.7760  -4.7601  -4.6958  -4.6754  -4.5791  -4.5167
    -4.4943  -4.4938  -4.4592  -3.6468   0.1845   0.2779   0.6817   0.7014
     0.7136   0.7283   0.7374   0.7421   0.7889   0.8068   0.8082   0.8110
     0.8183   0.8398   0.8529   0.8615   0.8906   0.9154   0.9282   0.9466
     0.9983   1.1489   1.2136   1.2485   1.2645   1.2938   1.3037   1.3185
     1.3253   1.3311   1.3477   1.3629   1.4096   1.4350   1.4382   1.4421
     1.4517   1.4600   1.4840   1.8873   2.0988   2.1016   2.1051   2.1147
     2.1202   2.1405   2.1471   2.2105   2.2563

 ------ SPIN DOWN ----------


[...]
     atom:   55    charge:    2.6407    magn:   -0.0001    constr:    0.0000
     atom:   56    charge:    2.6438    magn:   -0.0003    constr:    0.0000
     atom:   57    charge:    2.6460    magn:   -0.0018    constr:    0.0000
     atom:   58    charge:    2.6460    magn:    0.0060    constr:    0.0000
     atom:   59    charge:    2.6369    magn:    0.0305    constr:    0.0000
     atom:   60    charge:    2.6383    magn:    0.0147    constr:    0.0000
     atom:   61    charge:    2.6454    magn:    0.0100    constr:    0.0000
     atom:   62    charge:    2.6409    magn:    0.0026    constr:    0.0000
     atom:   63    charge:    2.6407    magn:   -0.0001    constr:    0.0000
     atom:   64    charge:    2.6487    magn:    0.0009    constr:    0.0000
     atom:   65    charge:    2.6480    magn:    0.0038    constr:    0.0000
     atom:   66    charge:    2.6481    magn:    0.0075    constr:    0.0000
     atom:   67    charge:    1.7454    magn:    0.1734    constr:    0.0000
     atom:   68    charge:    2.6364    magn:    0.0535    constr:    0.0000
     atom:   69    charge:    2.6454    magn:    0.0100    constr:    0.0000
     atom:   70    charge:    2.6504    magn:    0.0007    constr:    0.0000
     atom:   71    charge:    2.6490    magn:    0.0003    constr:    0.0000
     atom:   72    charge:    2.6439    magn:    0.0003    constr:    0.0000
     atom:   73    charge:    2.6383    magn:    0.0154    constr:    0.0000
     atom:   74    charge:    2.6072    magn:    0.1183    constr:    0.0000
     atom:   75    charge:    1.7455    magn:    0.1734    constr:    0.0000
     atom:   76    charge:    2.6383    magn:    0.0147    constr:    0.0000
     atom:   77    charge:    2.6486    magn:    0.0028    constr:    0.0000
     atom:   78    charge:    2.6468    magn:    0.0006    constr:    0.0000
     atom:   79    charge:    2.6431    magn:    0.0005    constr:    0.0000
     atom:   80    charge:    2.6350    magn:    0.0068    constr:    0.0000
     atom:   81    charge:    2.6383    magn:    0.0154    constr:    0.0000
     atom:   82    charge:    2.6481    magn:    0.0075    constr:    0.0000
     atom:   83    charge:    2.6369    magn:    0.0305    constr:    0.0000
     atom:   84    charge:    2.6373    magn:    0.0084    constr:    0.0000
     atom:   85    charge:    2.6459    magn:    0.0012    constr:    0.0000
     atom:   86    charge:    2.6446    magn:   -0.0001    constr:    0.0000
     atom:   87    charge:    2.6431    magn:    0.0005    constr:    0.0000
     atom:   88    charge:    2.6439    magn:    0.0003    constr:    0.0000
     atom:   89    charge:    2.6480    magn:    0.0038    constr:    0.0000
     atom:   90    charge:    2.6460    magn:    0.0060    constr:    0.0000
     atom:   91    charge:    2.6499    magn:    0.0005    constr:    0.0000
     atom:   92    charge:    2.6498    magn:    0.0003    constr:    0.0000
     atom:   93    charge:    2.6459    magn:    0.0012    constr:    0.0000
     atom:   94    charge:    2.6468    magn:    0.0006    constr:    0.0000
     atom:   95    charge:    2.6490    magn:    0.0003    constr:    0.0000
     atom:   96    charge:    2.6487    magn:    0.0009    constr:    0.0000
     atom:   97    charge:    2.6460    magn:   -0.0018    constr:    0.0000
     atom:   98    charge:    2.6493    magn:    0.0013    constr:    0.0000

     total cpu time spent up to now is     5374.9 secs

     End of self-consistent calculation

 ------ SPIN UP ------------


          k = 0.0000 0.0000 0.0000 ( 77471 PWs)   bands (ev):

   -21.9123 -21.6554 -21.3927 -21.3844 -21.3570 -21.2993 -21.2832 -20.8957
   -20.6622 -20.6435 -20.6204 -20.5442 -20.5387 -20.4229 -20.2908 -20.2871
   -20.2689 -20.1289 -20.1135 -19.6013 -19.4263 -19.4053 -19.3905 -19.3880
   -19.3803 -19.3662 -19.3617 -19.3172 -19.3117 -19.1678 -19.1593 -19.0375
   -18.9683 -18.9654 -18.9366 -18.7753 -18.7657 -18.5551 -18.5414 -18.5236
   -18.5214 -18.4660 -18.4201 -18.3923 -18.3584 -18.3383 -18.3284 -16.8644
   -15.0386 -13.1830 -12.7775 -12.7768 -12.7426 -12.7130 -12.7074 -12.6422
   -12.5592 -12.5211 -12.5146 -12.4882 -12.4062 -12.1530 -12.0606 -12.0525
   -12.0217 -11.9926 -11.9397 -11.5710 -11.4293 -11.4121 -11.3923 -11.3871
   -11.3612 -11.3570 -11.3528 -11.3121 -11.3002 -11.1071 -11.0430 -10.8713
   -10.7174 -10.7017 -10.6745 -10.6499 -10.4992 -10.0812 -10.0303 -10.0100
    -9.9355  -9.8850  -9.8165  -9.4108  -9.3389  -9.3263  -9.3100  -9.2909
    -9.2735  -9.2188  -9.0714  -8.9641  -8.9629  -8.9128  -8.9083  -8.8958
    -8.8920  -8.8843  -8.8836  -8.8571  -8.8261  -8.8233  -8.8166  -8.8163
    -8.7938  -8.7932  -8.7903  -8.7459  -8.7338  -8.7012  -8.6571  -8.6426
    -8.4654  -8.4572  -8.2141  -8.1878  -8.1846  -8.1052  -8.0855  -7.9819
    -7.8749  -7.8327  -7.8185  -7.7931  -7.7214  -7.7210  -7.5803  -7.5196
    -7.5019  -7.4707  -7.4606  -7.4451  -7.4265  -7.3918  -7.3892  -7.3374
    -7.3365  -7.3354  -7.3220  -7.2820  -7.2330  -7.2302  -7.2008  -7.0376
    -7.0352  -6.9935  -6.9077  -6.8237  -6.6560  -6.5530  -6.2940  -6.2004
    -6.1871  -6.1464  -6.0985  -6.0771  -6.0743  -6.0638  -6.0589  -6.0554
    -6.0351  -6.0309  -6.0081  -5.9853  -5.8865  -5.8308  -5.8074  -5.7186
    -5.5418  -5.4498  -5.4376  -5.4340  -5.3517  -5.2739  -5.1587  -5.1117
    -4.8069  -4.8043  -4.7759  -4.7600  -4.6957  -4.6753  -4.5789  -4.5166
    -4.4943  -4.4938  -4.4593  -3.6470   0.1845   0.2781   0.6818   0.7014
     0.7137   0.7285   0.7377   0.7422   0.7889   0.8069   0.8082   0.8110
     0.8184   0.8398   0.8531   0.8616   0.8906   0.9155   0.9282   0.9466
     0.9983   1.1490   1.2137   1.2487   1.2646   1.2940   1.3037   1.3185
     1.3254   1.3312   1.3477   1.3630   1.4096   1.4350   1.4383   1.4422
     1.4518   1.4601   1.4840   1.8874   2.1026   2.2732   2.3006   2.3097
     2.3313   2.3356   2.3373   2.3880   2.3886

 ------ SPIN DOWN ----------


          k = 0.0000 0.0000 0.0000 ( 77471 PWs)   bands (ev):

   -21.8472 -21.6307 -21.3901 -21.3804 -21.3540 -21.2880 -21.2631 -20.8714
   -20.6541 -20.6323 -20.6142 -20.5377 -20.5294 -20.4163 -20.2833 -20.2779
   -20.2493 -20.1070 -20.1004 -19.5773 -19.4155 -19.3980 -19.3858 -19.3812
   -19.3714 -19.3609 -19.3477 -19.3012 -19.2969 -19.1531 -19.1479 -19.0271
   -18.9597 -18.9580 -18.9152 -18.7604 -18.7479 -18.5422 -18.5317 -18.5105
   -18.5064 -18.4578 -18.4000 -18.3848 -18.3477 -18.3307 -18.3097 -16.6309
   -14.6799 -13.1761 -12.7763 -12.7744 -12.7416 -12.7120 -12.7072 -12.6426
   -12.5576 -12.5201 -12.5119 -12.4734 -12.4052 -12.1485 -12.0601 -12.0485
   -12.0148 -11.9825 -11.9330 -11.5642 -11.4219 -11.4109 -11.3905 -11.3839
   -11.3601 -11.3550 -11.3492 -11.3035 -11.2898 -11.0590 -11.0266 -10.8754
   -10.7166 -10.7017 -10.6695 -10.6441 -10.4957 -10.0750 -10.0275 -10.0016
    -9.9240  -9.8623  -9.8013  -9.4065  -9.3193  -9.3136  -9.3054  -9.2851
    -9.2718  -9.2142  -9.0661  -8.9508  -8.9092  -8.9059  -8.9046  -8.8916
    -8.8911  -8.8822  -8.8791  -8.8546  -8.8238  -8.8170  -8.8153  -8.8094
    -8.7924  -8.7882  -8.7863  -8.7255  -8.7140  -8.6431  -8.6355  -8.6312
    -8.4558  -8.4214  -8.2121  -8.1847  -8.1823  -8.0860  -8.0759  -7.9263
    -7.8565  -7.8211  -7.8012  -7.7856  -7.7030  -7.6867  -7.5730  -7.5099
    -7.4996  -7.4693  -7.4441  -7.4379  -7.4261  -7.3891  -7.3865  -7.3320
    -7.3273  -7.3205  -7.2915  -7.2688  -7.2170  -7.1678  -7.1641  -7.0331
    -7.0169  -6.9915  -6.8818  -6.7953  -6.6294  -6.5244  -6.2481  -6.1958
    -6.1760  -6.1434  -6.0813  -6.0657  -6.0556  -6.0500  -6.0448  -6.0418
    -6.0246  -6.0118  -5.9678  -5.9638  -5.8076  -5.8044  -5.7675  -5.6886
    -5.5181  -5.4379  -5.4255  -5.3994  -5.2547  -5.2021  -5.0810  -5.0246
    -4.7760  -4.7688  -4.7480  -4.7339  -4.6537  -4.6283  -4.5530  -4.4964
    -4.4822  -4.4720  -4.0627  -2.8338  -0.0010   0.1771   0.6706   0.6781
     0.7066   0.7249   0.7324   0.7390   0.7842   0.7929   0.8054   0.8091
     0.8156   0.8338   0.8433   0.8513   0.8783   0.9020   0.9165   0.9500
     0.9662   1.1333   1.2258   1.2298   1.2536   1.2717   1.3147   1.3227
     1.3284   1.3337   1.3420   1.3634   1.3865   1.4350   1.4387   1.4421
     1.4512   1.4593   1.4812   1.8830   2.0904   2.0954   2.0956   2.1090
     2.1095   2.1266   2.1367   2.2103   2.2689

     highest occupied, lowest unoccupied level (ev):    -3.6470   -4.0627

!    total energy              =   -1940.17812017 Ry
     Harris-Foulkes estimate   =   -1940.17812017 Ry
     estimated scf accuracy    <          2.4E-13 Ry

     total all-electron energy =     -7770.002597 Ry

     The total energy is the sum of the following terms:

     one-electron contribution =  -10643.84653233 Ry
     hartree contribution      =    5407.51333684 Ry
     xc contribution           =    -430.67857969 Ry
     ewald contribution        =    4370.28097308 Ry
     DFT-D3 Dispersion         =      -0.27012905 Ry
     one-center paw contrib.   =    -643.17718903 Ry

     total magnetization       =     1.00 Bohr mag/cell
     absolute magnetization    =     2.39 Bohr mag/cell

     convergence has been achieved in  24 iterations

     negative rho (up, down):  4.795E-01 7.824E-03

     Forces acting on atoms (cartesian axes, Ry/au):

     atom    1 type  1   force =     0.00001294   -0.00000946    0.00000000
     atom    2 type  1   force =    -0.00000252   -0.00000989    0.00000000
     atom    3 type  1   force =    -0.00001106   -0.00000142    0.00000000
     atom    4 type  1   force =    -0.00000330   -0.00000085    0.00000000
     atom    5 type  1   force =     0.00000956   -0.00000473    0.00000000
     atom    6 type  1   force =     0.00001198    0.00000350    0.00000000
     atom    7 type  1   force =     0.00000467   -0.00000050    0.00000000
     atom    8 type  1   force =    -0.00000932   -0.00000963    0.00000000
     atom    9 type  1   force =    -0.00000590   -0.00000974    0.00000000
     atom   10 type  1   force =    -0.00001400   -0.00000983    0.00000000
     atom   11 type  1   force =    -0.00001204   -0.00001065    0.00000000
     atom   12 type  1   force =     0.00000496   -0.00001020    0.00000000
     atom   13 type  1   force =     0.00000703   -0.00001346    0.00000000
     atom   14 type  1   force =    -0.00000517   -0.00001690    0.00000000
     atom   15 type  1   force =    -0.00001253    0.00000006    0.00000000
     atom   16 type  1   force =    -0.00001417    0.00000231    0.00000000
     atom   17 type  1   force =    -0.00001138   -0.00000327    0.00000000
     atom   18 type  1   force =    -0.00000942    0.00000003    0.00000000
     atom   19 type  1   force =    -0.00000072   -0.00000133    0.00000000
     atom   20 type  1   force =     0.00001176   -0.00001263    0.00000000
     atom   21 type  1   force =     0.00000638   -0.00001424    0.00000000
     atom   22 type  1   force =     0.00000631   -0.00000479    0.00000000
     atom   23 type  1   force =     0.00000232    0.00001070    0.00000000
     atom   24 type  1   force =    -0.00000902    0.00001051    0.00000000
     atom   25 type  4   force =    -0.00000527    0.00000314    0.00000000
     atom   26 type  1   force =    -0.00000460    0.00000866    0.00000000
     atom   27 type  1   force =     0.00000497    0.00000892    0.00000000
     atom   28 type  1   force =     0.00000626   -0.00000269    0.00000000
     atom   29 type  1   force =     0.00000247    0.00000779    0.00000000
     atom   30 type  1   force =     0.00001281    0.00000158    0.00000000
     atom   31 type  1   force =    -0.00000160    0.00000320    0.00000000
     atom   32 type  1   force =    -0.00001044    0.00000131    0.00000000
     atom   33 type  1   force =    -0.00000382    0.00000674    0.00000000
     atom   34 type  1   force =    -0.00000221    0.00001188    0.00000000
     atom   35 type  1   force =    -0.00000388    0.00000977    0.00000000
     atom   36 type  1   force =    -0.00000918    0.00001257    0.00000000
     atom   37 type  1   force =     0.00000194    0.00000380    0.00000000
     atom   38 type  1   force =     0.00000910   -0.00000268    0.00000000
     atom   39 type  1   force =    -0.00000129   -0.00000567    0.00000000
     atom   40 type  1   force =    -0.00000137    0.00000461    0.00000000
     atom   41 type  1   force =     0.00000617    0.00000229    0.00000000
     atom   42 type  1   force =     0.00000462    0.00000924    0.00000000
     atom   43 type  1   force =     0.00000810    0.00000045    0.00000000
     atom   44 type  1   force =    -0.00001092    0.00000585    0.00000000
     atom   45 type  1   force =    -0.00000434    0.00000303    0.00000000
     atom   46 type  1   force =     0.00000870    0.00000306    0.00000000
     atom   47 type  1   force =     0.00000236    0.00000603    0.00000000
     atom   48 type  1   force =     0.00001256    0.00000672    0.00000000
     atom   49 type  1   force =     0.00002124    0.00000028    0.00000000
     atom   50 type  2   force =     0.00001807   -0.00000783    0.00000000
     atom   51 type  2   force =     0.00000503   -0.00000466    0.00000000
     atom   52 type  2   force =    -0.00000997   -0.00000583    0.00000000
     atom   53 type  2   force =    -0.00000350   -0.00000623    0.00000000
     atom   54 type  2   force =     0.00000704    0.00000310    0.00000000
     atom   55 type  2   force =     0.00000235    0.00000720    0.00000000
     atom   56 type  2   force =     0.00000750    0.00000053    0.00000000
     atom   57 type  2   force =     0.00001034   -0.00000767    0.00000000
     atom   58 type  2   force =     0.00000698   -0.00001125    0.00000000
     atom   59 type  2   force =    -0.00000307   -0.00000236    0.00000000
     atom   60 type  2   force =    -0.00000004   -0.00000081    0.00000000
     atom   61 type  2   force =     0.00000758   -0.00000354    0.00000000
     atom   62 type  2   force =     0.00000397    0.00000548    0.00000000
     atom   63 type  2   force =     0.00000262    0.00000553    0.00000000
     atom   64 type  2   force =    -0.00000689   -0.00000429    0.00000000
     atom   65 type  2   force =    -0.00000169   -0.00000989    0.00000000
     atom   66 type  2   force =    -0.00001087   -0.00000638    0.00000000
     atom   67 type  3   force =    -0.00000164    0.00000029    0.00000000
     atom   68 type  2   force =     0.00000281   -0.00000119    0.00000000
     atom   69 type  2   force =     0.00000444    0.00000319    0.00000000
     atom   70 type  2   force =    -0.00000151    0.00000246    0.00000000
     atom   71 type  2   force =    -0.00000293   -0.00000020    0.00000000
     atom   72 type  2   force =    -0.00000552   -0.00001308    0.00000000
     atom   73 type  2   force =    -0.00001201   -0.00000041    0.00000000
     atom   74 type  2   force =    -0.00001112    0.00000609    0.00000000
     atom   75 type  5   force =    -0.00000078    0.00000197    0.00000000
     atom   76 type  2   force =     0.00000084    0.00000439    0.00000000
     atom   77 type  2   force =    -0.00000127    0.00001108    0.00000000
     atom   78 type  2   force =    -0.00000275    0.00000739    0.00000000
     atom   79 type  2   force =     0.00000074   -0.00000030    0.00000000
     atom   80 type  2   force =     0.00000016   -0.00000433    0.00000000
     atom   81 type  2   force =    -0.00001019    0.00000832    0.00000000
     atom   82 type  2   force =    -0.00000322    0.00001473    0.00000000
     atom   83 type  2   force =     0.00000281    0.00001076    0.00000000
     atom   84 type  2   force =     0.00000242    0.00001368    0.00000000
     atom   85 type  2   force =    -0.00000322    0.00000368    0.00000000
     atom   86 type  2   force =    -0.00000890    0.00000177    0.00000000
     atom   87 type  2   force =    -0.00000169   -0.00000806    0.00000000
     atom   88 type  2   force =     0.00000349    0.00000391    0.00000000
     atom   89 type  2   force =    -0.00000215    0.00000801    0.00000000
     atom   90 type  2   force =     0.00000680    0.00000666    0.00000000
     atom   91 type  2   force =     0.00000400   -0.00000069    0.00000000
     atom   92 type  2   force =     0.00001006   -0.00001172    0.00000000
     atom   93 type  2   force =    -0.00000974   -0.00000381    0.00000000
     atom   94 type  2   force =    -0.00000903   -0.00000583    0.00000000
     atom   95 type  2   force =     0.00000021   -0.00000583    0.00000000
     atom   96 type  2   force =    -0.00000230    0.00000925    0.00000000
     atom   97 type  2   force =     0.00000634    0.00000359    0.00000000
     atom   98 type  2   force =     0.00000967   -0.00001036    0.00000000

     Total force =     0.000104     Total SCF correction =     0.000001


     Computing stress (Cartesian axis) and pressure


     negative rho (up, down):  4.795E-01 7.824E-03
          total   stress  (Ry/bohr**3)                   (kbar)     P=   -0.17
  -0.00000003  -0.00000001   0.00000000         -0.00     -0.00      0.00
  -0.00000001  -0.00000004   0.00000000         -0.00     -0.01      0.00
   0.00000000   0.00000000  -0.00000334          0.00      0.00     -0.49


     Writing output data file C2Cn.save/
 
     init_run     :      9.50s CPU      9.83s WALL (       2 calls)
     electrons    :   5133.49s CPU   5180.63s WALL (      10 calls)
     update_pot   :     27.27s CPU     27.40s WALL (       8 calls)
     forces       :     38.13s CPU     38.72s WALL (      10 calls)
     stress       :    121.40s CPU    122.05s WALL (      10 calls)

     Called by init_run:
     wfcinit      :      3.62s CPU      3.82s WALL (       2 calls)
     potinit      :      2.06s CPU      2.09s WALL (       2 calls)
     hinit0       :      2.91s CPU      2.95s WALL (       2 calls)

     Called by electrons:
     c_bands      :   4979.12s CPU   5020.79s WALL (     136 calls)
     sum_band     :     79.37s CPU     81.33s WALL (     136 calls)
     v_of_rho     :     26.26s CPU     26.83s WALL (     138 calls)
     newd         :      8.68s CPU      9.60s WALL (     138 calls)
     PAW_pot      :     29.39s CPU     29.67s WALL (     146 calls)
     mix_rho      :      2.43s CPU      2.55s WALL (     136 calls)

     Called by c_bands:
     init_us_2    :      5.27s CPU      5.42s WALL (     604 calls)
     rcgdiagg     :   4834.26s CPU   4872.77s WALL (     296 calls)
     wfcrot       :    143.83s CPU    146.67s WALL (     264 calls)

     Called by sum_band:
     sum_band:bec :      0.19s CPU      0.19s WALL (     288 calls)
     addusdens    :      9.49s CPU     10.43s WALL (     136 calls)

     Called by *cgdiagg:
     h_psi        :   2498.41s CPU   2519.82s WALL (  215996 calls)
     s_psi        :   1425.89s CPU   1437.15s WALL (  431728 calls)
     rdiaghg      :      4.61s CPU      4.74s WALL (     264 calls)

     Called by h_psi:
     h_psi:pot    :   2495.56s CPU   2516.94s WALL (  215996 calls)
     h_psi:calbec :    861.29s CPU    868.18s WALL (  215996 calls)
     vloc_psi     :    884.86s CPU    895.35s WALL (  215996 calls)
     add_vuspsi   :    746.81s CPU    751.29s WALL (  215996 calls)
     hs_1psi      :   3094.84s CPU   3119.88s WALL (  215732 calls)
     s_1psi       :   1458.52s CPU   1469.08s WALL (  215732 calls)

     General routines
     calbec       :   1620.56s CPU   1634.05s WALL (  432116 calls)
     fft          :     21.83s CPU     22.15s WALL (    2680 calls)
     ffts         :      1.06s CPU      1.08s WALL (     272 calls)
     fftw         :    838.15s CPU    848.07s WALL (  530448 calls)
 
     Parallel routines
     fft_scatt_xy :     80.62s CPU     81.42s WALL (  533400 calls)
     fft_scatt_yz :    246.32s CPU    249.87s WALL (  533400 calls)
 
     PWSCF        :      1h28m CPU      1h29m WALL

 
   This run was terminated on:   3: 3:19   9Jun2021            

=------------------------------------------------------------------------------=
   JOB DONE.
=------------------------------------------------------------------------------=
