
     Program PWSCF v.6.4.1 starts on  1Jul2021 at 18:45:30 

     This program is part of the open-source Quantum ESPRESSO suite
     for quantum simulation of materials; please cite
         "P. Giannozzi et al., J. Phys.:Condens. Matter 21 395502 (2009);
         "P. Giannozzi et al., J. Phys.:Condens. Matter 29 465901 (2017);
          URL http://www.quantum-espresso.org", 
     in publications or presentations arising from this work. More details at
     http://www.quantum-espresso.org/quote

     Parallel version (MPI), running on    64 processors

     MPI processes distributed on     2 nodes
     R & G space division:  proc/nbgrp/npool/nimage =      64
     Waiting for input...
     Reading input from standard input

     Current dimensions of program PWSCF are:
     Max number of different atomic species (ntypx) = 10
     Max number of k-points (npk) =  40000
     Max angular momentum in pseudopotentials (lmaxx) =  3
               file N.pbe-n-kjpaw_psl.1.0.0.UPF: wavefunction(s)  2S renormalized
               file C.pbe-n-kjpaw_psl.1.0.0.UPF: wavefunction(s)  2S 2P renormalized
               file C.pbe-n-kjpaw_psl.1.0.0.UPF: wavefunction(s)  2S 2P renormalized
               file C.pbe-n-kjpaw_psl.1.0.0.UPF: wavefunction(s)  2S 2P renormalized

     --------------------------------------------
     Parameters for DFT-D3 Dispersion Correction:
     --------------------------------------------
       Reference C6 values for interpolation: 

         atom   Coordination number   C6
         B          0.000           214.36
         B          0.971           150.74
         B          1.944           106.23
         B          2.913            62.89
         B          4.586            56.06
         C1         0.000            98.23
         C1         0.987            86.49
         C1         1.998            58.72
         C1         2.999            51.56
         C1         3.984            36.41
         C2         0.000            98.23
         C2         0.987            86.49
         C2         1.998            58.72
         C2         2.999            51.56
         C2         3.984            36.41
         C3         0.000            98.23
         C3         0.987            86.49
         C3         1.998            58.72
         C3         2.999            51.56
         C3         3.984            36.41
         N          0.000            50.54
         N          0.994            44.25
         N          2.014            39.35
         N          2.990            31.16

       Values used:

         atom   Coordination number  R0_AB[au]  C6      C8
         B          3.326            3.039     62.90   2506.24
         B          3.317            3.039     62.90   2506.44
         B          3.318            3.039     62.90   2506.43
         B          3.323            3.039     62.90   2506.30
         B          3.325            3.039     62.90   2506.25
         B          3.323            3.039     62.90   2506.29
         B          3.326            3.039     62.90   2506.24
         B          3.323            3.039     62.90   2506.29
         B          3.321            3.039     62.90   2506.35
         B          3.306            3.039     62.91   2506.68
         B          3.318            3.039     62.90   2506.41
         B          3.324            3.039     62.90   2506.28
         B          3.323            3.039     62.90   2506.31
         B          3.323            3.039     62.90   2506.29
         B          3.323            3.039     62.90   2506.31
         B          3.324            3.039     62.90   2506.29
         B          3.294            3.039     62.92   2506.95
         B          3.282            3.039     62.92   2507.21
         B          3.320            3.039     62.90   2506.38
         B          3.324            3.039     62.90   2506.28
         B          3.325            3.039     62.90   2506.25
         B          3.322            3.039     62.90   2506.33
         B          3.317            3.039     62.90   2506.43
         B          3.306            3.039     62.91   2506.68
         C2         3.241            2.750     49.54   1432.76
         B          3.282            3.039     62.92   2507.21
         B          3.318            3.039     62.90   2506.41
         B          3.323            3.039     62.90   2506.30
         B          3.320            3.039     62.90   2506.38
         B          3.317            3.039     62.90   2506.43
         B          3.309            3.039     62.91   2506.63
         B          3.306            3.039     62.91   2506.68
         B          3.294            3.039     62.92   2506.95
         B          3.306            3.039     62.91   2506.68
         B          3.318            3.039     62.90   2506.43
         B          3.316            3.039     62.90   2506.46
         B          3.317            3.039     62.90   2506.44
         B          3.317            3.039     62.90   2506.43
         B          3.317            3.039     62.90   2506.43
         B          3.324            3.039     62.90   2506.29
         B          3.321            3.039     62.90   2506.35
         B          3.317            3.039     62.90   2506.44
         B          3.319            3.039     62.90   2506.40
         B          3.316            3.039     62.90   2506.46
         B          3.320            3.039     62.90   2506.38
         B          3.322            3.039     62.90   2506.33
         B          3.323            3.039     62.90   2506.31
         B          3.323            3.039     62.90   2506.30
         B          3.326            3.039     62.90   2506.24
         N          3.129            2.478     31.22    688.74
         N          3.128            2.478     31.22    688.75
         N          3.126            2.478     31.22    688.78
         N          3.128            2.478     31.22    688.76
         N          3.129            2.478     31.22    688.74
         N          3.128            2.478     31.22    688.75
         N          3.128            2.478     31.22    688.75
         N          3.128            2.478     31.22    688.75
         N          3.128            2.478     31.22    688.75
         N          3.125            2.478     31.22    688.79
         N          3.123            2.478     31.22    688.80
         N          3.129            2.478     31.22    688.74
         N          3.128            2.478     31.22    688.75
         N          3.128            2.478     31.22    688.75
         N          3.129            2.478     31.22    688.75
         N          3.129            2.478     31.22    688.75
         N          3.130            2.478     31.22    688.73
         C1         3.179            2.750     50.27   1453.94
         N          3.127            2.478     31.22    688.76
         N          3.129            2.478     31.22    688.74
         N          3.129            2.478     31.22    688.74
         N          3.128            2.478     31.22    688.75
         N          3.127            2.478     31.22    688.77
         N          3.124            2.478     31.22    688.80
         N          3.145            2.478     31.21    688.60
         C3         3.179            2.750     50.27   1453.94
         N          3.123            2.478     31.22    688.80
         N          3.128            2.478     31.22    688.76
         N          3.127            2.478     31.22    688.77
         N          3.127            2.478     31.22    688.77
         N          3.125            2.478     31.22    688.78
         N          3.124            2.478     31.22    688.80
         N          3.130            2.478     31.22    688.73
         N          3.125            2.478     31.22    688.79
         N          3.126            2.478     31.22    688.78
         N          3.126            2.478     31.22    688.77
         N          3.126            2.478     31.22    688.77
         N          3.127            2.478     31.22    688.77
         N          3.127            2.478     31.22    688.77
         N          3.129            2.478     31.22    688.75
         N          3.128            2.478     31.22    688.75
         N          3.128            2.478     31.22    688.75
         N          3.129            2.478     31.22    688.74
         N          3.126            2.478     31.22    688.77
         N          3.127            2.478     31.22    688.77
         N          3.128            2.478     31.22    688.75
         N          3.129            2.478     31.22    688.75
         N          3.128            2.478     31.22    688.75
         N          3.129            2.478     31.22    688.74

         Molecular C6 ( Ry / a.u.^6 ) =    437740.81


     gamma-point specific algorithms are used

     Subspace diagonalization in iterative solution of the eigenvalue problem:
     one sub-group per band group will be used
     scalapack distributed-memory algorithm (size of sub-group:  5*  5 procs)

     Message from routine setup:
     DEPRECATED: symmetry with ibrav=0, use correct ibrav instead
 
     Parallelization info
     --------------------
     sticks:   dense  smooth     PW     G-vecs:    dense   smooth      PW
     Min         189     189     46                19338    19338    2406
     Max         192     192     48                19350    19350    2428
     Sum       12173   12173   3053              1238065  1238065  154925
 


     bravais-lattice index     =            0
     lattice parameter (alat)  =      33.2346  a.u.
     unit-cell volume          =   36229.5351 (a.u.)^3
     number of atoms/cell      =           98
     number of atomic types    =            5
     number of electrons       =       391.00
     number of Kohn-Sham states=          245
     kinetic-energy cutoff     =      40.0000  Ry
     charge density cutoff     =     160.0000  Ry
     convergence threshold     =      1.0E-08
     mixing beta               =       0.7000
     number of iterations used =            8  plain     mixing
     Exchange-correlation      = SLA PW PBX PBC ( 1  4  3  4 0 0)
     Using LIBXC version       =    4   3   4
     nstep                     =           50


     celldm(1)=  33.234611  celldm(2)=   0.000000  celldm(3)=   0.000000
     celldm(4)=   0.000000  celldm(5)=   0.000000  celldm(6)=   0.000000

     crystal axes: (cart. coord. in units of alat)
               a(1) = (   1.001012   0.000087   0.000000 )  
               a(2) = (  -0.500431   0.866945   0.000000 )  
               a(3) = (   0.000000   0.000000   1.137204 )  

     reciprocal axes: (cart. coord. in units 2 pi/alat)
               b(1) = (  0.998939  0.576622  0.000000 )  
               b(2) = ( -0.000100  1.153418  0.000000 )  
               b(3) = (  0.000000  0.000000  0.879350 )  


     PseudoPot. # 1 for B  read from file:
     ./pseudo/B.pbe-n-kjpaw_psl.1.0.0.UPF
     MD5 check sum: 8c825a5969375aca5c2c6ad5945b3059
     Pseudo is Projector augmented-wave + core cor, Zval =  3.0
     Generated using "atomic" code by A. Dal Corso v.6.3
     Shape of augmentation charge: PSQ
     Using radial grid of 1059 points,  4 beta functions with: 
                l(1) =   0
                l(2) =   0
                l(3) =   1
                l(4) =   1
     Q(r) pseudized with 0 coefficients 


     PseudoPot. # 2 for N  read from file:
     ./pseudo/N.pbe-n-kjpaw_psl.1.0.0.UPF
     MD5 check sum: 14c48229446f9f2d411169a3abcbc3fa
     Pseudo is Projector augmented-wave + core cor, Zval =  5.0
     Generated using "atomic" code by A. Dal Corso v.6.3
     Shape of augmentation charge: PSQ
     Using radial grid of 1085 points,  4 beta functions with: 
                l(1) =   0
                l(2) =   0
                l(3) =   1
                l(4) =   1
     Q(r) pseudized with 0 coefficients 


     PseudoPot. # 3 for C  read from file:
     ./pseudo/C.pbe-n-kjpaw_psl.1.0.0.UPF
     MD5 check sum: 5f16ad9a65e90284d1d834d4ab3b0f7d
     Pseudo is Projector augmented-wave + core cor, Zval =  4.0
     Generated using "atomic" code by A. Dal Corso v.6.3
     Shape of augmentation charge: PSQ
     Using radial grid of 1073 points,  4 beta functions with: 
                l(1) =   0
                l(2) =   0
                l(3) =   1
                l(4) =   1
     Q(r) pseudized with 0 coefficients 


     PseudoPot. # 4 for C  read from file:
     ./pseudo/C.pbe-n-kjpaw_psl.1.0.0.UPF
     MD5 check sum: 5f16ad9a65e90284d1d834d4ab3b0f7d
     Pseudo is Projector augmented-wave + core cor, Zval =  4.0
     Generated using "atomic" code by A. Dal Corso v.6.3
     Shape of augmentation charge: PSQ
     Using radial grid of 1073 points,  4 beta functions with: 
                l(1) =   0
                l(2) =   0
                l(3) =   1
                l(4) =   1
     Q(r) pseudized with 0 coefficients 


     PseudoPot. # 5 for C  read from file:
     ./pseudo/C.pbe-n-kjpaw_psl.1.0.0.UPF
     MD5 check sum: 5f16ad9a65e90284d1d834d4ab3b0f7d
     Pseudo is Projector augmented-wave + core cor, Zval =  4.0
     Generated using "atomic" code by A. Dal Corso v.6.3
     Shape of augmentation charge: PSQ
     Using radial grid of 1073 points,  4 beta functions with: 
                l(1) =   0
                l(2) =   0
                l(3) =   1
                l(4) =   1
     Q(r) pseudized with 0 coefficients 


     atomic species   valence    mass     pseudopotential
        B              3.00    10.00000     B ( 1.00)
        N              5.00    14.00000     N ( 1.00)
        C1             4.00    12.00000     C ( 1.00)
        C2             4.00    12.00000     C ( 1.00)
        C3             4.00    12.00000     C ( 1.00)

     Starting magnetic structure 
     atomic species   magnetization
        B            0.000
        N            0.000
        C1           1.000
        C2           0.000
        C3           0.000

      2 Sym. Ops. (no inversion) found



   Cartesian axes

     site n.     atom                  positions (alat units)
         1           B   tau(   1) = (  -0.0000661   0.0821550   0.5686018  )
         2           B   tau(   2) = (  -0.0715630   0.2061795   0.5686018  )
         3           B   tau(   3) = (  -0.1432113   0.3302001   0.5686018  )
         4           B   tau(   4) = (  -0.2148790   0.4540871   0.5686018  )
         5           B   tau(   5) = (  -0.2860010   0.5779778   0.5686018  )
         6           B   tau(   6) = (  -0.3572932   0.7019390   0.5686018  )
         7           B   tau(   7) = (  -0.4288568   0.8256220   0.5686018  )
         8           B   tau(   8) = (   0.1428858   0.0818612   0.5686018  )
         9           B   tau(   9) = (   0.0711009   0.2051540   0.5686018  )
        10           B   tau(  10) = (  -0.0002002   0.3302153   0.5686018  )
        11           B   tau(  11) = (  -0.0723385   0.4540587   0.5686018  )
        12           B   tau(  12) = (  -0.1439144   0.5781026   0.5686018  )
        13           B   tau(  13) = (  -0.2147248   0.7019928   0.5686018  )
        14           B   tau(  14) = (  -0.2859624   0.8254877   0.5686018  )
        15           B   tau(  15) = (   0.2863171   0.0818620   0.5686018  )
        16           B   tau(  16) = (   0.2149154   0.2048348   0.5686018  )
        17           B   tau(  17) = (   0.1431840   0.3274135   0.5686018  )
        18           B   tau(  18) = (   0.0700440   0.4552651   0.5686018  )
        19           B   tau(  19) = (  -0.0021397   0.5792567   0.5686018  )
        20           B   tau(  20) = (  -0.0720276   0.7026143   0.5686018  )
        21           B   tau(  21) = (  -0.1429628   0.8257274   0.5686018  )
        22           B   tau(  22) = (   0.4291280   0.0825453   0.5686018  )
        23           B   tau(  23) = (   0.3576768   0.2061663   0.5686018  )
        24           B   tau(  24) = (   0.2855853   0.3293878   0.5686018  )
        25           C2  tau(  25) = (   0.2161814   0.4532090   0.5686018  )
        26           B   tau(  26) = (   0.1413320   0.5787396   0.5686018  )
        27           B   tau(  27) = (   0.0711855   0.7026498   0.5686018  )
        28           B   tau(  28) = (  -0.0001093   0.8260792   0.5686018  )
        29           B   tau(  29) = (   0.5719643   0.0826277   0.5686018  )
        30           B   tau(  30) = (   0.5006014   0.2063393   0.5686018  )
        31           B   tau(  31) = (   0.4291839   0.3302318   0.5686018  )
        32           B   tau(  32) = (   0.3581155   0.4550138   0.5686018  )
        33           B   tau(  33) = (   0.2886247   0.5793243   0.5686018  )
        34           B   tau(  34) = (   0.2145062   0.7020977   0.5686018  )
        35           B   tau(  35) = (   0.1430138   0.8259567   0.5686018  )
        36           B   tau(  36) = (   0.7149716   0.0826571   0.5686018  )
        37           B   tau(  37) = (   0.6434760   0.2065103   0.5686018  )
        38           B   tau(  38) = (   0.5721868   0.3303288   0.5686018  )
        39           B   tau(  39) = (   0.5008743   0.4541916   0.5686018  )
        40           B   tau(  40) = (   0.4306467   0.5784923   0.5686018  )
        41           B   tau(  41) = (   0.3584628   0.7028799   0.5686018  )
        42           B   tau(  42) = (   0.2862429   0.8259178   0.5686018  )
        43           B   tau(  43) = (   0.8581264   0.0825820   0.5686018  )
        44           B   tau(  44) = (   0.7864839   0.2065200   0.5686018  )
        45           B   tau(  45) = (   0.7150058   0.3303825   0.5686018  )
        46           B   tau(  46) = (   0.6436589   0.4541236   0.5686018  )
        47           B   tau(  47) = (   0.5728452   0.5781431   0.5686018  )
        48           B   tau(  48) = (   0.5011303   0.7023588   0.5686018  )
        49           B   tau(  49) = (   0.4294000   0.8260119   0.5686018  )
        50           N   tau(  50) = (   0.0714092   0.0409834   0.5686018  )
        51           N   tau(  51) = (  -0.0003324   0.1644706   0.5686018  )
        52           N   tau(  52) = (  -0.0716745   0.2888584   0.5686018  )
        53           N   tau(  53) = (  -0.1435397   0.4127378   0.5686018  )
        54           N   tau(  54) = (  -0.2149839   0.5365936   0.5686018  )
        55           N   tau(  55) = (  -0.2859826   0.6605673   0.5686018  )
        56           N   tau(  56) = (  -0.3574017   0.7843674   0.5686018  )
        57           N   tau(  57) = (   0.2145957   0.0409023   0.5686018  )
        58           N   tau(  58) = (   0.1428638   0.1641525   0.5686018  )
        59           N   tau(  59) = (   0.0710040   0.2875565   0.5686018  )
        60           N   tau(  60) = (  -0.0009771   0.4129416   0.5686018  )
        61           N   tau(  61) = (  -0.0729167   0.5369169   0.5686018  )
        62           N   tau(  62) = (  -0.1433548   0.6607873   0.5686018  )
        63           N   tau(  63) = (  -0.2144782   0.7844166   0.5686018  )
        64           N   tau(  64) = (   0.3577692   0.0411271   0.5686018  )
        65           N   tau(  65) = (   0.2865981   0.1642218   0.5686018  )
        66           N   tau(  66) = (   0.2151254   0.2865290   0.5686018  )
        67           C1  tau(  67) = (   0.1452044   0.4129678   0.5686018  )
        68           N   tau(  68) = (   0.0683920   0.5385352   0.5686018  )
        69           N   tau(  69) = (  -0.0008609   0.6617212   0.5686018  )
        70           N   tau(  70) = (  -0.0716146   0.7849168   0.5686018  )
        71           N   tau(  71) = (   0.5005170   0.0415123   0.5686018  )
        72           N   tau(  72) = (   0.4291613   0.1651595   0.5686018  )
        73           N   tau(  73) = (   0.3574522   0.2891199   0.5686018  )
        74           N   tau(  74) = (   0.2852984   0.4133042   0.5686018  )
        75           C3  tau(  75) = (   0.2155428   0.5347973   0.5686018  )
        76           N   tau(  76) = (   0.1424748   0.6614074   0.5686018  )
        77           N   tau(  77) = (   0.0713699   0.7849723   0.5686018  )
        78           N   tau(  78) = (   0.6434543   0.0414983   0.5686018  )
        79           N   tau(  79) = (   0.5720144   0.1652033   0.5686018  )
        80           N   tau(  80) = (   0.5004990   0.2890581   0.5686018  )
        81           N   tau(  81) = (   0.4289221   0.4129094   0.5686018  )
        82           N   tau(  82) = (   0.3600025   0.5374635   0.5686018  )
        83           N   tau(  83) = (   0.2870520   0.6617625   0.5686018  )
        84           N   tau(  84) = (   0.2145853   0.7846748   0.5686018  )
        85           N   tau(  85) = (   0.7865312   0.0414493   0.5686018  )
        86           N   tau(  86) = (   0.7149689   0.1652339   0.5686018  )
        87           N   tau(  87) = (   0.6435181   0.2890514   0.5686018  )
        88           N   tau(  88) = (   0.5721296   0.4127877   0.5686018  )
        89           N   tau(  89) = (   0.5016599   0.5367199   0.5686018  )
        90           N   tau(  90) = (   0.4298528   0.6612320   0.5686018  )
        91           N   tau(  91) = (   0.3579793   0.7850846   0.5686018  )
        92           N   tau(  92) = (   0.9295320   0.0413558   0.5686018  )
        93           N   tau(  93) = (   0.8579506   0.1651514   0.5686018  )
        94           N   tau(  94) = (   0.7863698   0.2890352   0.5686018  )
        95           N   tau(  95) = (   0.7148891   0.4128155   0.5686018  )
        96           N   tau(  96) = (   0.6438487   0.5366312   0.5686018  )
        97           N   tau(  97) = (   0.5724566   0.6607356   0.5686018  )
        98           N   tau(  98) = (   0.5007931   0.7846981   0.5686018  )

     number of k points=     1
                       cart. coord. in units 2pi/alat
        k(    1) = (   0.0000000   0.0000000   0.0000000), wk =   1.0000000

     Dense  grid:   619033 G-vectors     FFT dimensions: ( 135, 135, 160)

     Occupations read from input 

      Spin-up

        1.0000   1.0000   1.0000   1.0000   1.0000   1.0000   1.0000   1.0000
        1.0000   1.0000   1.0000   1.0000   1.0000   1.0000   1.0000   1.0000
        1.0000   1.0000   1.0000   1.0000   1.0000   1.0000   1.0000   1.0000
        1.0000   1.0000   1.0000   1.0000   1.0000   1.0000   1.0000   1.0000
        1.0000   1.0000   1.0000   1.0000   1.0000   1.0000   1.0000   1.0000
        1.0000   1.0000   1.0000   1.0000   1.0000   1.0000   1.0000   1.0000
        1.0000   1.0000   1.0000   1.0000   1.0000   1.0000   1.0000   1.0000
        1.0000   1.0000   1.0000   1.0000   1.0000   1.0000   1.0000   1.0000
        1.0000   1.0000   1.0000   1.0000   1.0000   1.0000   1.0000   1.0000
        1.0000   1.0000   1.0000   1.0000   1.0000   1.0000   1.0000   1.0000
        1.0000   1.0000   1.0000   1.0000   1.0000   1.0000   1.0000   1.0000
        1.0000   1.0000   1.0000   1.0000   1.0000   1.0000   1.0000   1.0000
        1.0000   1.0000   1.0000   1.0000   1.0000   1.0000   1.0000   1.0000
        1.0000   1.0000   1.0000   1.0000   1.0000   1.0000   1.0000   1.0000
        1.0000   1.0000   1.0000   1.0000   1.0000   1.0000   1.0000   1.0000
        1.0000   1.0000   1.0000   1.0000   1.0000   1.0000   1.0000   1.0000
        1.0000   1.0000   1.0000   1.0000   1.0000   1.0000   1.0000   1.0000
        1.0000   1.0000   1.0000   1.0000   1.0000   1.0000   1.0000   1.0000
        1.0000   1.0000   1.0000   1.0000   1.0000   1.0000   1.0000   1.0000
        1.0000   1.0000   1.0000   1.0000   1.0000   1.0000   1.0000   1.0000
        1.0000   1.0000   1.0000   1.0000   1.0000   1.0000   1.0000   1.0000
        1.0000   1.0000   1.0000   1.0000   1.0000   1.0000   1.0000   1.0000
        1.0000   1.0000   1.0000   1.0000   1.0000   1.0000   1.0000   1.0000
        1.0000   1.0000   1.0000   1.0000   1.0000   1.0000   1.0000   1.0000
        1.0000   1.0000   0.0000   1.0000   1.0000   0.0000   0.0000   0.0000
        0.0000   0.0000   0.0000   0.0000   0.0000   0.0000   0.0000   0.0000
        0.0000   0.0000   0.0000   0.0000   0.0000   0.0000   0.0000   0.0000
        0.0000   0.0000   0.0000   0.0000   0.0000   0.0000   0.0000   0.0000
        0.0000   0.0000   0.0000   0.0000   0.0000   0.0000   0.0000   0.0000
        0.0000   0.0000   0.0000   0.0000   0.0000   0.0000   0.0000   0.0000
        0.0000   0.0000   0.0000   0.0000   0.0000

      Spin-down

        1.0000   1.0000   1.0000   1.0000   1.0000   1.0000   1.0000   1.0000
        1.0000   1.0000   1.0000   1.0000   1.0000   1.0000   1.0000   1.0000
        1.0000   1.0000   1.0000   1.0000   1.0000   1.0000   1.0000   1.0000
        1.0000   1.0000   1.0000   1.0000   1.0000   1.0000   1.0000   1.0000
        1.0000   1.0000   1.0000   1.0000   1.0000   1.0000   1.0000   1.0000
        1.0000   1.0000   1.0000   1.0000   1.0000   1.0000   1.0000   1.0000
        1.0000   1.0000   1.0000   1.0000   1.0000   1.0000   1.0000   1.0000
        1.0000   1.0000   1.0000   1.0000   1.0000   1.0000   1.0000   1.0000
        1.0000   1.0000   1.0000   1.0000   1.0000   1.0000   1.0000   1.0000
        1.0000   1.0000   1.0000   1.0000   1.0000   1.0000   1.0000   1.0000
        1.0000   1.0000   1.0000   1.0000   1.0000   1.0000   1.0000   1.0000
        1.0000   1.0000   1.0000   1.0000   1.0000   1.0000   1.0000   1.0000
        1.0000   1.0000   1.0000   1.0000   1.0000   1.0000   1.0000   1.0000
        1.0000   1.0000   1.0000   1.0000   1.0000   1.0000   1.0000   1.0000
        1.0000   1.0000   1.0000   1.0000   1.0000   1.0000   1.0000   1.0000
        1.0000   1.0000   1.0000   1.0000   1.0000   1.0000   1.0000   1.0000
        1.0000   1.0000   1.0000   1.0000   1.0000   1.0000   1.0000   1.0000
        1.0000   1.0000   1.0000   1.0000   1.0000   1.0000   1.0000   1.0000
        1.0000   1.0000   1.0000   1.0000   1.0000   1.0000   1.0000   1.0000
        1.0000   1.0000   1.0000   1.0000   1.0000   1.0000   1.0000   1.0000
        1.0000   1.0000   1.0000   1.0000   1.0000   1.0000   1.0000   1.0000
        1.0000   1.0000   1.0000   1.0000   1.0000   1.0000   1.0000   1.0000
        1.0000   1.0000   1.0000   1.0000   1.0000   1.0000   1.0000   1.0000
        1.0000   1.0000   1.0000   1.0000   1.0000   1.0000   1.0000   1.0000
        1.0000   1.0000   1.0000   0.0000   0.0000   0.0000   0.0000   0.0000
        0.0000   0.0000   0.0000   0.0000   0.0000   0.0000   0.0000   0.0000
        0.0000   0.0000   0.0000   0.0000   0.0000   0.0000   0.0000   0.0000
        0.0000   0.0000   0.0000   0.0000   0.0000   0.0000   0.0000   0.0000
        0.0000   0.0000   0.0000   0.0000   0.0000   0.0000   0.0000   0.0000
        0.0000   0.0000   0.0000   0.0000   0.0000   0.0000   0.0000   0.0000
        0.0000   0.0000   0.0000   0.0000   0.0000

     Estimated max dynamical RAM per process >     122.40 MB

     Estimated total dynamical RAM >       7.65 GB
     Generating pointlists ...
     new r_m :   0.0336 (alat units)  1.1165 (a.u.) for type    1
     new r_m :   0.0329 (alat units)  1.0941 (a.u.) for type    2
     new r_m :   0.0337 (alat units)  1.1186 (a.u.) for type    3
     new r_m :   0.0329 (alat units)  1.0941 (a.u.) for type    4
     new r_m :   0.0337 (alat units)  1.1186 (a.u.) for type    5

     Check: negative core charge=   -0.000006

     Initial potential from superposition of free atoms

     starting charge  390.98597, renormalised to  391.00000

     negative rho (up, down):  5.507E-02 5.817E-02
     Starting wfcs are  392 randomized atomic wfcs
     Checking if some PAW data can be deallocated... 

     total cpu time spent up to now is        8.3 secs

     Self-consistent Calculation

     iteration #  1     ecut=    40.00 Ry     beta= 0.70
     CG style diagonalization
     ethr =  1.00E-02,  avg # of iterations =  3.1

     negative rho (up, down):  3.252E-01 1.273E-02

     total cpu time spent up to now is       44.5 secs

     total energy              =   -1933.13148176 Ry
     Harris-Foulkes estimate   =   -1946.22284451 Ry
     estimated scf accuracy    <      19.85606385 Ry

     total magnetization       =     1.00 Bohr mag/cell
     absolute magnetization    =     2.26 Bohr mag/cell

     iteration #  2     ecut=    40.00 Ry     beta= 0.70
     CG style diagonalization
     ethr =  5.08E-03,  avg # of iterations =  4.0

     negative rho (up, down):  3.591E-01 1.239E-02

     total cpu time spent up to now is       80.3 secs

     total energy              =   -1937.01450257 Ry
     Harris-Foulkes estimate   =   -1943.85332544 Ry
     estimated scf accuracy    <      13.43009344 Ry

     total magnetization       =     1.00 Bohr mag/cell
     absolute magnetization    =     2.82 Bohr mag/cell

     iteration #  3     ecut=    40.00 Ry     beta= 0.70
     CG style diagonalization
     ethr =  3.43E-03,  avg # of iterations =  3.7

     negative rho (up, down):  3.950E-01 1.276E-02

     total cpu time spent up to now is      111.9 secs

     total energy              =   -1939.38286715 Ry
     Harris-Foulkes estimate   =   -1940.55260801 Ry
     estimated scf accuracy    <       2.39453384 Ry

     total magnetization       =     1.00 Bohr mag/cell
     absolute magnetization    =     2.88 Bohr mag/cell

     iteration #  4     ecut=    40.00 Ry     beta= 0.70
     CG style diagonalization
     ethr =  6.12E-04,  avg # of iterations =  3.8

     negative rho (up, down):  4.494E-01 1.274E-02

     total cpu time spent up to now is      144.3 secs

     total energy              =   -1940.01676120 Ry
     Harris-Foulkes estimate   =   -1940.36895534 Ry
     estimated scf accuracy    <       1.07662614 Ry

     total magnetization       =     1.00 Bohr mag/cell
     absolute magnetization    =     2.64 Bohr mag/cell

     iteration #  5     ecut=    40.00 Ry     beta= 0.70
     CG style diagonalization
     ethr =  2.75E-04,  avg # of iterations =  3.2

     negative rho (up, down):  4.139E-01 4.354E-02

     total cpu time spent up to now is      170.4 secs

     total energy              =   -1940.11204890 Ry
     Harris-Foulkes estimate   =   -1940.19887857 Ry
     estimated scf accuracy    <       0.34279110 Ry

     total magnetization       =     1.00 Bohr mag/cell
     absolute magnetization    =     2.48 Bohr mag/cell

     iteration #  6     ecut=    40.00 Ry     beta= 0.70
     CG style diagonalization
     c_bands:  2 eigenvalues not converged
     c_bands:  2 eigenvalues not converged
     ethr =  8.77E-05,  avg # of iterations =  3.5

     negative rho (up, down):  4.162E-01 4.583E-02

     total cpu time spent up to now is      199.4 secs

     total energy              =   -1940.13270110 Ry
     Harris-Foulkes estimate   =   -1940.18308691 Ry
     estimated scf accuracy    <       0.26187700 Ry

     total magnetization       =     1.00 Bohr mag/cell
     absolute magnetization    =     2.94 Bohr mag/cell

     iteration #  7     ecut=    40.00 Ry     beta= 0.70
     CG style diagonalization
     ethr =  6.70E-05,  avg # of iterations =  3.0

     negative rho (up, down):  4.429E-01 2.976E-02

     total cpu time spent up to now is      223.8 secs

     total energy              =   -1940.16071078 Ry
     Harris-Foulkes estimate   =   -1940.16667880 Ry
     estimated scf accuracy    <       0.02619251 Ry

     total magnetization       =     1.00 Bohr mag/cell
     absolute magnetization    =     2.32 Bohr mag/cell

     iteration #  8     ecut=    40.00 Ry     beta= 0.70
     CG style diagonalization
     c_bands:  5 eigenvalues not converged
     c_bands:  3 eigenvalues not converged
     ethr =  6.70E-06,  avg # of iterations =  4.4

     negative rho (up, down):  4.638E-01 1.914E-02

     total cpu time spent up to now is      263.9 secs

     total energy              =   -1940.16600297 Ry
     Harris-Foulkes estimate   =   -1940.16635667 Ry
     estimated scf accuracy    <       0.00659102 Ry

     total magnetization       =     1.00 Bohr mag/cell
     absolute magnetization    =     2.31 Bohr mag/cell

     iteration #  9     ecut=    40.00 Ry     beta= 0.70
     CG style diagonalization
     c_bands:  4 eigenvalues not converged
     c_bands:  1 eigenvalues not converged
     ethr =  1.69E-06,  avg # of iterations =  9.6

     negative rho (up, down):  4.739E-01 1.489E-02

     total cpu time spent up to now is      344.3 secs

     total energy              =   -1940.16756821 Ry
     Harris-Foulkes estimate   =   -1940.16819919 Ry
     estimated scf accuracy    <       0.00336063 Ry

     total magnetization       =     1.00 Bohr mag/cell
     absolute magnetization    =     2.36 Bohr mag/cell

     iteration # 10     ecut=    40.00 Ry     beta= 0.70
     CG style diagonalization
     c_bands:  2 eigenvalues not converged
     c_bands:  1 eigenvalues not converged
     ethr =  8.59E-07,  avg # of iterations =  3.7

     negative rho (up, down):  4.792E-01 1.360E-02

     total cpu time spent up to now is      375.7 secs

     total energy              =   -1940.16807392 Ry
     Harris-Foulkes estimate   =   -1940.16889660 Ry
     estimated scf accuracy    <       0.00358120 Ry

     total magnetization       =     1.00 Bohr mag/cell
     absolute magnetization    =     2.35 Bohr mag/cell

     iteration # 11     ecut=    40.00 Ry     beta= 0.70
     CG style diagonalization
     ethr =  8.59E-07,  avg # of iterations =  3.2

     negative rho (up, down):  4.792E-01 1.350E-02

     total cpu time spent up to now is      401.2 secs

     total energy              =   -1940.16854818 Ry
     Harris-Foulkes estimate   =   -1940.16871088 Ry
     estimated scf accuracy    <       0.00052715 Ry

     total magnetization       =     1.00 Bohr mag/cell
     absolute magnetization    =     2.38 Bohr mag/cell

     iteration # 12     ecut=    40.00 Ry     beta= 0.70
     CG style diagonalization
     ethr =  1.35E-07,  avg # of iterations =  3.4

     negative rho (up, down):  4.825E-01 1.375E-02

     total cpu time spent up to now is      429.6 secs

     total energy              =   -1940.16871217 Ry
     Harris-Foulkes estimate   =   -1940.16869901 Ry
     estimated scf accuracy    <       0.00021958 Ry

     total magnetization       =     1.00 Bohr mag/cell
     absolute magnetization    =     2.38 Bohr mag/cell

     iteration # 13     ecut=    40.00 Ry     beta= 0.70
     CG style diagonalization
     ethr =  5.62E-08,  avg # of iterations =  3.4

     negative rho (up, down):  4.818E-01 1.374E-02

     total cpu time spent up to now is      457.4 secs

     total energy              =   -1940.16875730 Ry
     Harris-Foulkes estimate   =   -1940.16875948 Ry
     estimated scf accuracy    <       0.00003293 Ry

     total magnetization       =     1.00 Bohr mag/cell
     absolute magnetization    =     2.39 Bohr mag/cell

     iteration # 14     ecut=    40.00 Ry     beta= 0.70
     CG style diagonalization
     ethr =  8.42E-09,  avg # of iterations =  3.5

     negative rho (up, down):  4.808E-01 1.377E-02

     total cpu time spent up to now is      486.1 secs

     total energy              =   -1940.16876316 Ry
     Harris-Foulkes estimate   =   -1940.16876465 Ry
     estimated scf accuracy    <       0.00002138 Ry

     total magnetization       =     1.00 Bohr mag/cell
     absolute magnetization    =     2.40 Bohr mag/cell

     iteration # 15     ecut=    40.00 Ry     beta= 0.70
     CG style diagonalization
     ethr =  5.47E-09,  avg # of iterations =  3.4

     negative rho (up, down):  4.808E-01 1.385E-02

     total cpu time spent up to now is      514.1 secs

     total energy              =   -1940.16876234 Ry
     Harris-Foulkes estimate   =   -1940.16876962 Ry
     estimated scf accuracy    <       0.00001661 Ry

     total magnetization       =     1.00 Bohr mag/cell
     absolute magnetization    =     2.40 Bohr mag/cell

     iteration # 16     ecut=    40.00 Ry     beta= 0.70
     CG style diagonalization
     ethr =  4.25E-09,  avg # of iterations =  3.6

     negative rho (up, down):  4.804E-01 1.383E-02

     total cpu time spent up to now is      544.1 secs

     total energy              =   -1940.16876733 Ry
     Harris-Foulkes estimate   =   -1940.16876938 Ry
     estimated scf accuracy    <       0.00000530 Ry

     total magnetization       =     1.00 Bohr mag/cell
     absolute magnetization    =     2.40 Bohr mag/cell

     iteration # 17     ecut=    40.00 Ry     beta= 0.70
     CG style diagonalization
     ethr =  1.36E-09,  avg # of iterations =  3.4

     negative rho (up, down):  4.804E-01 1.384E-02

     total cpu time spent up to now is      572.0 secs

     total energy              =   -1940.16876847 Ry
     Harris-Foulkes estimate   =   -1940.16876857 Ry
     estimated scf accuracy    <       0.00000041 Ry

     total magnetization       =     1.00 Bohr mag/cell
     absolute magnetization    =     2.40 Bohr mag/cell

     iteration # 18     ecut=    40.00 Ry     beta= 0.70
     CG style diagonalization
     ethr =  1.05E-10,  avg # of iterations =  3.9

     negative rho (up, down):  4.803E-01 1.384E-02

     total cpu time spent up to now is      604.7 secs

     total energy              =   -1940.16876862 Ry
     Harris-Foulkes estimate   =   -1940.16876867 Ry
     estimated scf accuracy    <       0.00000020 Ry

     total magnetization       =     1.00 Bohr mag/cell
     absolute magnetization    =     2.40 Bohr mag/cell

     iteration # 19     ecut=    40.00 Ry     beta= 0.70
     CG style diagonalization
     ethr =  5.05E-11,  avg # of iterations =  3.5

     negative rho (up, down):  4.803E-01 1.384E-02

     total cpu time spent up to now is      633.3 secs

     total energy              =   -1940.16876865 Ry
     Harris-Foulkes estimate   =   -1940.16876868 Ry
     estimated scf accuracy    <       0.00000007 Ry

     total magnetization       =     1.00 Bohr mag/cell
     absolute magnetization    =     2.40 Bohr mag/cell

     iteration # 20     ecut=    40.00 Ry     beta= 0.70
     CG style diagonalization
     ethr =  1.77E-11,  avg # of iterations =  3.4

     negative rho (up, down):  4.803E-01 1.384E-02

     total cpu time spent up to now is      660.7 secs

     total energy              =   -1940.16876866 Ry
     Harris-Foulkes estimate   =   -1940.16876867 Ry
     estimated scf accuracy    <       0.00000003 Ry

     total magnetization       =     1.00 Bohr mag/cell
     absolute magnetization    =     2.40 Bohr mag/cell

     iteration # 21     ecut=    40.00 Ry     beta= 0.70
     CG style diagonalization
     ethr =  6.98E-12,  avg # of iterations =  3.3

     negative rho (up, down):  4.803E-01 1.384E-02

     total cpu time spent up to now is      687.5 secs

     total energy              =   -1940.16876868 Ry
     Harris-Foulkes estimate   =   -1940.16876867 Ry
     estimated scf accuracy    <       0.00000001 Ry

     total magnetization       =     1.00 Bohr mag/cell
     absolute magnetization    =     2.40 Bohr mag/cell

     iteration # 22     ecut=    40.00 Ry     beta= 0.70
     CG style diagonalization
     ethr =  3.83E-12,  avg # of iterations =  3.2

     negative rho (up, down):  4.803E-01 1.385E-02
 
     Magnetic moment per site:
     atom:    1    charge:    0.8510    magn:    0.0001    constr:    0.0000
     atom:    2    charge:    0.8464    magn:    0.0011    constr:    0.0000
     atom:    3    charge:    0.8475    magn:    0.0021    constr:    0.0000
     atom:    4    charge:    0.8490    magn:   -0.0004    constr:    0.0000
     atom:    5    charge:    0.8520    magn:    0.0010    constr:    0.0000
     atom:    6    charge:    0.8503    magn:   -0.0001    constr:    0.0000
     atom:    7    charge:    0.8512    magn:    0.0005    constr:    0.0000
     atom:    8    charge:    0.8500    magn:    0.0008    constr:    0.0000
     atom:    9    charge:    0.8511    magn:    0.0005    constr:    0.0000
     atom:   10    charge:    0.8441    magn:    0.0098    constr:    0.0000
     atom:   11    charge:    0.8475    magn:    0.0014    constr:    0.0000
     atom:   12    charge:    0.8528    magn:    0.0018    constr:    0.0000
     atom:   13    charge:    0.8520    magn:   -0.0004    constr:    0.0000
     atom:   14    charge:    0.8503    magn:   -0.0001    constr:    0.0000
     atom:   15    charge:    0.8502    magn:    0.0003    constr:    0.0000
     atom:   16    charge:    0.8558    magn:    0.0058    constr:    0.0000
     atom:   17    charge:    0.8621    magn:    0.0176    constr:    0.0000
     atom:   18    charge:    0.8510    magn:    0.0260    constr:    0.0000
     atom:   19    charge:    0.8609    magn:    0.0097    constr:    0.0000
     atom:   20    charge:    0.8528    magn:    0.0018    constr:    0.0000
     atom:   21    charge:    0.8520    magn:    0.0010    constr:    0.0000
     atom:   22    charge:    0.8472    magn:   -0.0000    constr:    0.0000
     atom:   23    charge:    0.8442    magn:    0.0013    constr:    0.0000
     atom:   24    charge:    0.8416    magn:    0.0104    constr:    0.0000
     atom:   25    charge:    1.6344    magn:    0.1385    constr:    0.0000
     atom:   26    charge:    0.8510    magn:    0.0260    constr:    0.0000
     atom:   27    charge:    0.8475    magn:    0.0014    constr:    0.0000
     atom:   28    charge:    0.8490    magn:   -0.0004    constr:    0.0000
     atom:   29    charge:    0.8474    magn:    0.0009    constr:    0.0000
     atom:   30    charge:    0.8480    magn:    0.0002    constr:    0.0000
     atom:   31    charge:    0.8479    magn:    0.0025    constr:    0.0000
     atom:   32    charge:    0.8416    magn:    0.0104    constr:    0.0000
     atom:   33    charge:    0.8621    magn:    0.0176    constr:    0.0000
     atom:   34    charge:    0.8441    magn:    0.0098    constr:    0.0000
     atom:   35    charge:    0.8475    magn:    0.0021    constr:    0.0000
     atom:   36    charge:    0.8465    magn:    0.0003    constr:    0.0000
     atom:   37    charge:    0.8460    magn:   -0.0004    constr:    0.0000
     atom:   38    charge:    0.8480    magn:    0.0002    constr:    0.0000
     atom:   39    charge:    0.8442    magn:    0.0013    constr:    0.0000
     atom:   40    charge:    0.8558    magn:    0.0058    constr:    0.0000
     atom:   41    charge:    0.8511    magn:    0.0005    constr:    0.0000
     atom:   42    charge:    0.8464    magn:    0.0011    constr:    0.0000
     atom:   43    charge:    0.8465    magn:    0.0009    constr:    0.0000
     atom:   44    charge:    0.8465    magn:    0.0003    constr:    0.0000
     atom:   45    charge:    0.8474    magn:    0.0009    constr:    0.0000
     atom:   46    charge:    0.8472    magn:   -0.0000    constr:    0.0000
     atom:   47    charge:    0.8502    magn:    0.0003    constr:    0.0000
     atom:   48    charge:    0.8500    magn:    0.0008    constr:    0.0000
     atom:   49    charge:    0.8510    magn:    0.0001    constr:    0.0000
     atom:   50    charge:    2.7070    magn:   -0.0009    constr:    0.0000
     atom:   51    charge:    2.7049    magn:   -0.0007    constr:    0.0000
     atom:   52    charge:    2.6955    magn:   -0.0049    constr:    0.0000
     atom:   53    charge:    2.7041    magn:   -0.0063    constr:    0.0000
     atom:   54    charge:    2.7064    magn:   -0.0002    constr:    0.0000
     atom:   55    charge:    2.6996    magn:    0.0001    constr:    0.0000
     atom:   56    charge:    2.7021    magn:    0.0001    constr:    0.0000
     atom:   57    charge:    2.7022    magn:    0.0023    constr:    0.0000
     atom:   58    charge:    2.7029    magn:   -0.0008    constr:    0.0000
     atom:   59    charge:    2.6918    magn:   -0.0263    constr:    0.0000
     atom:   60    charge:    2.6957    magn:    0.0088    constr:    0.0000
     atom:   61    charge:    2.7033    magn:   -0.0108    constr:    0.0000
     atom:   62    charge:    2.6984    magn:   -0.0060    constr:    0.0000
     atom:   63    charge:    2.6996    magn:    0.0001    constr:    0.0000
     atom:   64    charge:    2.7073    magn:   -0.0007    constr:    0.0000
     atom:   65    charge:    2.7065    magn:   -0.0057    constr:    0.0000
     atom:   66    charge:    2.7048    magn:    0.0208    constr:    0.0000
     atom:   67    charge:    1.7203    magn:    0.0781    constr:    0.0000
     atom:   68    charge:    2.6896    magn:   -0.0757    constr:    0.0000
     atom:   69    charge:    2.7033    magn:   -0.0108    constr:    0.0000
     atom:   70    charge:    2.7064    magn:   -0.0002    constr:    0.0000
     atom:   71    charge:    2.7058    magn:   -0.0004    constr:    0.0000
     atom:   72    charge:    2.7013    magn:    0.0001    constr:    0.0000
     atom:   73    charge:    2.6954    magn:   -0.0137    constr:    0.0000
     atom:   74    charge:    2.6632    magn:   -0.1156    constr:    0.0000
     atom:   75    charge:    1.7203    magn:    0.0782    constr:    0.0000
     atom:   76    charge:    2.6957    magn:    0.0088    constr:    0.0000
     atom:   77    charge:    2.7041    magn:   -0.0063    constr:    0.0000
     atom:   78    charge:    2.7049    magn:   -0.0003    constr:    0.0000
     atom:   79    charge:    2.7011    magn:   -0.0004    constr:    0.0000
     atom:   80    charge:    2.6970    magn:   -0.0082    constr:    0.0000
     atom:   81    charge:    2.6954    magn:   -0.0137    constr:    0.0000
     atom:   82    charge:    2.7048    magn:    0.0208    constr:    0.0000
     atom:   83    charge:    2.6918    magn:   -0.0264    constr:    0.0000
     atom:   84    charge:    2.6955    magn:   -0.0049    constr:    0.0000
     atom:   85    charge:    2.7022    magn:   -0.0011    constr:    0.0000
     atom:   86    charge:    2.7019    magn:   -0.0003    constr:    0.0000
     atom:   87    charge:    2.7011    magn:   -0.0004    constr:    0.0000
     atom:   88    charge:    2.7013    magn:    0.0001    constr:    0.0000
     atom:   89    charge:    2.7065    magn:   -0.0057    constr:    0.0000
     atom:   90    charge:    2.7029    magn:   -0.0008    constr:    0.0000
     atom:   91    charge:    2.7048    magn:   -0.0007    constr:    0.0000
     atom:   92    charge:    2.7084    magn:   -0.0010    constr:    0.0000
     atom:   93    charge:    2.7022    magn:   -0.0011    constr:    0.0000
     atom:   94    charge:    2.7049    magn:   -0.0003    constr:    0.0000
     atom:   95    charge:    2.7058    magn:   -0.0004    constr:    0.0000
     atom:   96    charge:    2.7073    magn:   -0.0007    constr:    0.0000
     atom:   97    charge:    2.7022    magn:    0.0023    constr:    0.0000
     atom:   98    charge:    2.7070    magn:   -0.0009    constr:    0.0000

     total cpu time spent up to now is      713.2 secs

     End of self-consistent calculation

 ------ SPIN UP ------------


          k = 0.0000 0.0000 0.0000 ( 77463 PWs)   bands (ev):

   -21.7776 -21.5586 -21.4014 -21.3917 -21.3772 -21.3038 -21.2543 -20.8395
   -20.6618 -20.6426 -20.6288 -20.5529 -20.5400 -20.4223 -20.2920 -20.2916
   -20.2629 -20.1152 -20.1051 -19.5630 -19.4158 -19.4052 -19.3992 -19.3943
   -19.3852 -19.3769 -19.3599 -19.3141 -19.3084 -19.1667 -19.1626 -19.0355
   -18.9740 -18.9734 -18.9320 -18.7717 -18.7598 -18.5479 -18.5436 -18.5235
   -18.5125 -18.4701 -18.4196 -18.4000 -18.3684 -18.3470 -18.3290 -16.7295
   -14.8811 -13.1237 -12.7792 -12.7729 -12.7531 -12.7257 -12.7201 -12.6565
   -12.5689 -12.5364 -12.5263 -12.4810 -12.4104 -12.1545 -12.0710 -12.0571
   -12.0323 -11.9831 -11.9421 -11.5576 -11.4149 -11.4078 -11.3959 -11.3934
   -11.3751 -11.3645 -11.3629 -11.3123 -11.3011 -11.0927 -11.0478 -10.8743
   -10.7280 -10.7156 -10.6753 -10.6540 -10.5062 -10.0679 -10.0313 -10.0050
    -9.9360  -9.8811  -9.8203  -9.3981  -9.3236  -9.3138  -9.3133  -9.2938
    -9.2822  -9.2266  -9.0529  -8.9383  -8.9131  -8.9128  -8.9055  -8.8996
    -8.8904  -8.8814  -8.8800  -8.8659  -8.8361  -8.8309  -8.8270  -8.8240
    -8.8125  -8.8002  -8.7942  -8.7526  -8.7284  -8.6734  -8.6596  -8.6452
    -8.4769  -8.4577  -8.2213  -8.1964  -8.1958  -8.0975  -8.0759  -7.9002
    -7.8636  -7.8312  -7.8146  -7.8073  -7.7294  -7.7210  -7.5586  -7.5064
    -7.5039  -7.4784  -7.4572  -7.4467  -7.4318  -7.4037  -7.4021  -7.3418
    -7.3406  -7.3381  -7.3089  -7.2773  -7.2218  -7.2153  -7.2093  -7.0335
    -7.0313  -7.0020  -6.9002  -6.8233  -6.6583  -6.5466  -6.2139  -6.1957
    -6.1847  -6.1548  -6.0821  -6.0750  -6.0735  -6.0653  -6.0617  -6.0563
    -6.0463  -6.0336  -5.9963  -5.9822  -5.8697  -5.8228  -5.8091  -5.7092
    -5.5231  -5.4538  -5.4478  -5.4206  -5.3245  -5.2572  -5.1092  -5.0471
    -4.7865  -4.7844  -4.7600  -4.7538  -4.6734  -4.6729  -4.5650  -4.5193
    -4.5034  -4.4975  -4.2575  -3.4545  -0.0170   0.1766   0.6797   0.6814
     0.7075   0.7090   0.7201   0.7210   0.7744   0.7916   0.8044   0.8049
     0.8098   0.8287   0.8298   0.8512   0.8539   0.8976   0.9150   0.9224
     0.9261   1.1179   1.2009   1.2123   1.2323   1.2431   1.2914   1.3162
     1.3218   1.3260   1.3423   1.3566   1.3969   1.4360   1.4389   1.4413
     1.4525   1.4607   1.4872   1.8842   2.0881   2.0940   2.0946   2.1074
     2.1128   2.1258   2.1391   2.2097   2.3050

 ------ SPIN DOWN ----------


          k = 0.0000 0.0000 0.0000 ( 77463 PWs)   bands (ev):

   -21.7927 -21.5925 -21.4021 -21.3934 -21.3802 -21.3040 -21.2676 -20.8621
   -20.6675 -20.6532 -20.6233 -20.5532 -20.5436 -20.4295 -20.2953 -20.2893
   -20.2799 -20.1153 -20.1064 -19.5812 -19.4224 -19.4093 -19.4023 -19.3978
   -19.3876 -19.3767 -19.3696 -19.3273 -19.3019 -19.1736 -19.1707 -19.0401
   -18.9765 -18.9744 -18.9495 -18.7666 -18.7661 -18.5554 -18.5473 -18.5307
   -18.5219 -18.4749 -18.4287 -18.4056 -18.3706 -18.3516 -18.3441 -16.5665
   -14.6396 -13.0379 -12.7767 -12.7678 -12.7499 -12.7222 -12.7180 -12.6471
   -12.5669 -12.5299 -12.5235 -12.4613 -12.3984 -12.1466 -12.0690 -12.0557
   -12.0268 -11.9732 -11.9338 -11.5389 -11.4125 -11.4028 -11.3948 -11.3885
   -11.3742 -11.3634 -11.3610 -11.3067 -11.2901 -11.0673 -11.0239 -10.8621
   -10.7260 -10.7125 -10.6724 -10.6358 -10.4838 -10.0641 -10.0247 -10.0046
    -9.9268  -9.8715  -9.8073  -9.3965  -9.3180  -9.3135  -9.3035  -9.2918
    -9.2805  -9.2232  -9.0506  -8.9441  -8.9145  -8.9108  -8.9076  -8.8963
    -8.8923  -8.8877  -8.8798  -8.8631  -8.8341  -8.8307  -8.8250  -8.8213
    -8.8163  -8.7962  -8.7954  -8.7372  -8.7212  -8.6420  -8.6284  -8.6270
    -8.4632  -8.4380  -8.2225  -8.1969  -8.1955  -8.0732  -8.0707  -7.9234
    -7.8531  -7.8371  -7.8260  -7.7884  -7.7134  -7.6904  -7.5532  -7.5117
    -7.5027  -7.4760  -7.4560  -7.4508  -7.4454  -7.4046  -7.4034  -7.3439
    -7.3396  -7.3281  -7.3220  -7.2774  -7.2123  -7.1584  -7.1567  -7.0333
    -7.0293  -7.0022  -6.8609  -6.7979  -6.6422  -6.5219  -6.2383  -6.1938
    -6.1881  -6.1573  -6.0907  -6.0800  -6.0692  -6.0665  -6.0577  -6.0510
    -6.0426  -6.0404  -6.0145  -5.9592  -5.8154  -5.8088  -5.7867  -5.6865
    -5.5282  -5.4499  -5.4491  -5.4348  -5.2578  -5.2159  -5.0644  -4.9774
    -4.8013  -4.7888  -4.7783  -4.7646  -4.6767  -4.6570  -4.5693  -4.5184
    -4.5123  -4.5067  -4.1849  -2.8870   0.1835   0.4919   0.6998   0.7136
     0.7141   0.7331   0.7476   0.7492   0.7911   0.8031   0.8054   0.8078
     0.8114   0.8353   0.8550   0.8617   0.8863   0.9024   0.9466   0.9542
     1.0499   1.1665   1.2222   1.2576   1.2761   1.3158   1.3210   1.3258
     1.3379   1.3449   1.3497   1.3743   1.4217   1.4336   1.4364   1.4389
     1.4500   1.4589   1.4923   1.8871   2.0956   2.1002   2.1114   2.1216
     2.1444   2.1564   2.1572   2.2132   2.3191

     highest occupied, lowest unoccupied level (ev):    -4.1849   -4.2575

!    total energy              =   -1940.16876868 Ry
     Harris-Foulkes estimate   =   -1940.16876868 Ry
     estimated scf accuracy    <          2.5E-09 Ry

     total all-electron energy =     -7769.993245 Ry

     The total energy is the sum of the following terms:

     one-electron contribution =  -10645.28309066 Ry
     hartree contribution      =    5408.23334440 Ry
     xc contribution           =    -430.66812770 Ry
     ewald contribution        =    4370.99770978 Ry
     DFT-D3 Dispersion         =      -0.27015178 Ry
     one-center paw contrib.   =    -643.17845272 Ry

     total magnetization       =     1.00 Bohr mag/cell
     absolute magnetization    =     2.40 Bohr mag/cell

     convergence has been achieved in  22 iterations

     negative rho (up, down):  4.803E-01 1.385E-02

     Forces acting on atoms (cartesian axes, Ry/au):

     atom    1 type  1   force =    -0.00001489   -0.00030845    0.00000000
     atom    2 type  1   force =    -0.00020968   -0.00015813    0.00000000
     atom    3 type  1   force =    -0.00030770    0.00010199    0.00000000
     atom    4 type  1   force =    -0.00015285    0.00016665    0.00000000
     atom    5 type  1   force =     0.00032462   -0.00047103    0.00000000
     atom    6 type  1   force =     0.00011255   -0.00008637    0.00000000
     atom    7 type  1   force =    -0.00026538    0.00015038    0.00000000
     atom    8 type  1   force =    -0.00014085    0.00035775    0.00000000
     atom    9 type  1   force =     0.00006979    0.00009867    0.00000000
     atom   10 type  1   force =    -0.00022527   -0.00014505    0.00000000
     atom   11 type  1   force =    -0.00022570   -0.00021811    0.00000000
     atom   12 type  1   force =     0.00039062   -0.00012601    0.00000000
     atom   13 type  1   force =     0.00041534   -0.00024187    0.00000000
     atom   14 type  1   force =     0.00012893   -0.00005983    0.00000000
     atom   15 type  1   force =     0.00006247    0.00006935    0.00000000
     atom   16 type  1   force =    -0.00013400    0.00010719    0.00000000
     atom   17 type  1   force =    -0.00001946   -0.00023839    0.00000000
     atom   18 type  1   force =    -0.00012142   -0.00026104    0.00000000
     atom   19 type  1   force =     0.00000976   -0.00000638    0.00000000
     atom   20 type  1   force =     0.00030419   -0.00027863    0.00000000
     atom   21 type  1   force =     0.00056969   -0.00004912    0.00000000
     atom   22 type  1   force =     0.00032341   -0.00034635    0.00000000
     atom   23 type  1   force =    -0.00008507    0.00023818    0.00000000
     atom   24 type  1   force =    -0.00021075    0.00012524    0.00000000
     atom   25 type  4   force =     0.00000486   -0.00000410    0.00000000
     atom   26 type  1   force =     0.00016750    0.00023483    0.00000000
     atom   27 type  1   force =     0.00007831    0.00030024    0.00000000
     atom   28 type  1   force =    -0.00022070    0.00004854    0.00000000
     atom   29 type  1   force =    -0.00003251    0.00002521    0.00000000
     atom   30 type  1   force =     0.00004510   -0.00011104    0.00000000
     atom   31 type  1   force =    -0.00017217    0.00010224    0.00000000
     atom   32 type  1   force =    -0.00021361    0.00012506    0.00000000
     atom   33 type  1   force =     0.00019716    0.00013304    0.00000000
     atom   34 type  1   force =     0.00001412    0.00026799    0.00000000
     atom   35 type  1   force =    -0.00023649    0.00021471    0.00000000
     atom   36 type  1   force =    -0.00015279    0.00006064    0.00000000
     atom   37 type  1   force =     0.00000759   -0.00000325    0.00000000
     atom   38 type  1   force =     0.00011927    0.00002048    0.00000000
     atom   39 type  1   force =    -0.00024819   -0.00004124    0.00000000
     atom   40 type  1   force =    -0.00015761    0.00006567    0.00000000
     atom   41 type  1   force =    -0.00004286   -0.00010950    0.00000000
     atom   42 type  1   force =     0.00003588    0.00025732    0.00000000
     atom   43 type  1   force =    -0.00005241    0.00002891    0.00000000
     atom   44 type  1   force =    -0.00012972    0.00010319    0.00000000
     atom   45 type  1   force =    -0.00003895    0.00001910    0.00000000
     atom   46 type  1   force =     0.00046060   -0.00010518    0.00000000
     atom   47 type  1   force =    -0.00003033   -0.00008867    0.00000000
     atom   48 type  1   force =    -0.00038465   -0.00006269    0.00000000
     atom   49 type  1   force =     0.00025578    0.00016097    0.00000000
     atom   50 type  2   force =     0.00021797   -0.00003810    0.00000000
     atom   51 type  2   force =     0.00005379   -0.00023457    0.00000000
     atom   52 type  2   force =    -0.00039277   -0.00028433    0.00000000
     atom   53 type  2   force =    -0.00018438    0.00002319    0.00000000
     atom   54 type  2   force =     0.00046048    0.00017745    0.00000000
     atom   55 type  2   force =     0.00002127    0.00009017    0.00000000
     atom   56 type  2   force =     0.00011907   -0.00006651    0.00000000
     atom   57 type  2   force =    -0.00013062   -0.00019325    0.00000000
     atom   58 type  2   force =    -0.00006385   -0.00036258    0.00000000
     atom   59 type  2   force =    -0.00025014   -0.00048485    0.00000000
     atom   60 type  2   force =    -0.00053336   -0.00002162    0.00000000
     atom   61 type  2   force =    -0.00035259   -0.00001822    0.00000000
     atom   62 type  2   force =     0.00005769   -0.00003029    0.00000000
     atom   63 type  2   force =    -0.00006617   -0.00006063    0.00000000
     atom   64 type  2   force =    -0.00024662   -0.00007076    0.00000000
     atom   65 type  2   force =    -0.00007182   -0.00028344    0.00000000
     atom   66 type  2   force =     0.00010411   -0.00019782    0.00000000
     atom   67 type  3   force =    -0.00016210   -0.00037545    0.00000000
     atom   68 type  2   force =    -0.00042392    0.00024546    0.00000000
     atom   69 type  2   force =    -0.00016000    0.00031845    0.00000000
     atom   70 type  2   force =     0.00007766   -0.00048637    0.00000000
     atom   71 type  2   force =     0.00013341   -0.00031136    0.00000000
     atom   72 type  2   force =    -0.00028633   -0.00006858    0.00000000
     atom   73 type  2   force =    -0.00013397   -0.00004942    0.00000000
     atom   74 type  2   force =     0.00038409   -0.00022059    0.00000000
     atom   75 type  5   force =     0.00024417    0.00033208    0.00000000
     atom   76 type  2   force =    -0.00025257    0.00047511    0.00000000
     atom   77 type  2   force =    -0.00011477    0.00014719    0.00000000
     atom   78 type  2   force =     0.00005528   -0.00029268    0.00000000
     atom   79 type  2   force =    -0.00014039    0.00007297    0.00000000
     atom   80 type  2   force =    -0.00009142    0.00005176    0.00000000
     atom   81 type  2   force =    -0.00002468    0.00013603    0.00000000
     atom   82 type  2   force =     0.00022042    0.00000204    0.00000000
     atom   83 type  2   force =     0.00028992    0.00045914    0.00000000
     atom   84 type  2   force =     0.00004467    0.00048444    0.00000000
     atom   85 type  2   force =    -0.00005191   -0.00026226    0.00000000
     atom   86 type  2   force =     0.00002624   -0.00001553    0.00000000
     atom   87 type  2   force =    -0.00013383    0.00008293    0.00000000
     atom   88 type  2   force =    -0.00008355    0.00027808    0.00000000
     atom   89 type  2   force =     0.00021052    0.00020122    0.00000000
     atom   90 type  2   force =     0.00028240    0.00023993    0.00000000
     atom   91 type  2   force =     0.00022966    0.00007543    0.00000000
     atom   92 type  2   force =     0.00023619   -0.00013371    0.00000000
     atom   93 type  2   force =     0.00020283    0.00017662    0.00000000
     atom   94 type  2   force =     0.00028223    0.00009568    0.00000000
     atom   95 type  2   force =     0.00033572    0.00003748    0.00000000
     atom   96 type  2   force =    -0.00006008    0.00024930    0.00000000
     atom   97 type  2   force =     0.00010574    0.00021276    0.00000000
     atom   98 type  2   force =     0.00014478   -0.00016511    0.00000000

     Total force =     0.002999     Total SCF correction =     0.000103


     Computing stress (Cartesian axis) and pressure


     negative rho (up, down):  4.803E-01 1.385E-02
          total   stress  (Ry/bohr**3)                   (kbar)     P=   -0.12
   0.00000043  -0.00000000   0.00000000          0.06     -0.00      0.00
  -0.00000000   0.00000043   0.00000000         -0.00      0.06      0.00
   0.00000000   0.00000000  -0.00000334          0.00      0.00     -0.49


     BFGS Geometry Optimization

     number of scf cycles    =   1
     number of bfgs steps    =   0

     enthalpy new            =   -1940.1687686833 Ry

     new trust radius        =       0.0005720576 bohr
     new conv_thr            =       0.0000000100 Ry

     new unit-cell volume =  36230.31954 a.u.^3 (  5368.77938 Ang^3 )
     density =      0.36311 g/cm^3

CELL_PARAMETERS (alat= 33.23461096)
   1.001022932   0.000086723   0.000000000
  -0.500436361   0.866954670   0.000000000
   0.000000000   0.000000000   1.137203616

ATOMIC_POSITIONS (crystal)
B        0.047300563   0.094748275   0.500000000
B        0.047391563   0.237812766   0.500000000
B        0.047333858   0.380876425   0.500000000
B        0.047184015   0.523779336   0.500000000
B        0.047578872   0.666661990   0.500000000
B        0.047841420   0.809661592   0.500000000
B        0.047664904   0.952335070   0.500000000
B        0.189939199   0.094418282   0.500000000
B        0.189325611   0.236624603   0.500000000
B        0.190200257   0.380871143   0.500000000
B        0.189548029   0.523718962   0.500000000
B        0.189594681   0.666803732   0.500000000
B        0.190296009   0.809703958   0.500000000
B        0.190338367   0.952158551   0.500000000
B        0.333219855   0.094394887   0.500000000
B        0.332797556   0.236242329   0.500000000
B        0.331821244   0.377621884   0.500000000
B        0.332477443   0.525094693   0.500000000
B        0.331875033   0.668124848   0.500000000
B        0.333196193   0.810405265   0.500000000
B        0.333337972   0.952421145   0.500000000
B        0.476273830   0.095154321   0.500000000
B        0.476178908   0.237768312   0.500000000
B        0.475210494   0.379897528   0.500000000
C2       0.477282504   0.522717459   0.500000000
B        0.474905228   0.667522465   0.500000000
B        0.476281019   0.810451915   0.500000000
B        0.476220645   0.952816064   0.500000000
B        0.619001865   0.095247895   0.500000000
B        0.619049480   0.237941489   0.500000000
B        0.619144136   0.380855829   0.500000000
B        0.620102400   0.524789509   0.500000000
B        0.622378008   0.668178658   0.500000000
B        0.619128850   0.809799734   0.500000000
B        0.619123683   0.952666214   0.500000000
B        0.761871384   0.095268771   0.500000000
B        0.761871852   0.238128221   0.500000000
B        0.762058539   0.380950557   0.500000000
B        0.762231707   0.523821107   0.500000000
B        0.763757657   0.667202421   0.500000000
B        0.763375454   0.810674375   0.500000000
B        0.762187321   0.952608460   0.500000000
B        0.904833368   0.095166695   0.500000000
B        0.904731323   0.238128718   0.500000000
B        0.904752196   0.380998208   0.500000000
B        0.904845745   0.523726174   0.500000000
B        0.905605121   0.666780134   0.500000000
B        0.905581651   0.810060729   0.500000000
B        0.905251685   0.952699398   0.500000000
N        0.094971262   0.047262566   0.500000000
N        0.094502891   0.189695195   0.500000000
N        0.094946944   0.333171642   0.500000000
N        0.094601213   0.476074223   0.500000000
N        0.094672902   0.618944217   0.500000000
N        0.095220786   0.761941701   0.500000000
N        0.095263557   0.904736567   0.500000000
N        0.237945881   0.047149291   0.500000000
N        0.237357960   0.189309559   0.500000000
N        0.236724228   0.331648787   0.500000000
N        0.237118824   0.476293465   0.500000000
N        0.236747948   0.619296084   0.500000000
N        0.237823095   0.762176957   0.500000000
N        0.238058367   0.904779315   0.500000000
N        0.381095793   0.047398483   0.500000000
N        0.380980897   0.189377874   0.500000000
N        0.380115815   0.330459211   0.500000000
C1       0.383165394   0.476296780   0.500000000
N        0.378842332   0.621157632   0.500000000
N        0.380703926   0.763252091   0.500000000
N        0.381055798   0.905327168   0.500000000
N        0.523921503   0.047820200   0.500000000
N        0.523930820   0.190452557   0.500000000
N        0.523781067   0.333438562   0.500000000
N        0.523323785   0.476676136   0.500000000
C3       0.523703179   0.616834578   0.500000000
N        0.523706468   0.762881202   0.500000000
N        0.523925730   0.905398840   0.500000000
N        0.666697030   0.047790362   0.500000000
N        0.666664448   0.190493797   0.500000000
N        0.666643465   0.333356467   0.500000000
N        0.666561303   0.476218806   0.500000000
N        0.669540576   0.619884006   0.500000000
N        0.668351057   0.763275722   0.500000000
N        0.666828290   0.905053100   0.500000000
N        0.809591156   0.047720650   0.500000000
N        0.809488367   0.190511699   0.500000000
N        0.809506226   0.333335536   0.500000000
N        0.809547424   0.476069088   0.500000000
N        0.810622075   0.619019014   0.500000000
N        0.810690414   0.762642047   0.500000000
N        0.810304843   0.905497199   0.500000000
N        0.952397217   0.047602937   0.500000000
N        0.952279470   0.190408925   0.500000000
N        0.952209713   0.333302965   0.500000000
N        0.952179852   0.476078449   0.500000000
N        0.952601600   0.618904207   0.500000000
N        0.952850833   0.762054184   0.500000000
N        0.952737572   0.905028869   0.500000000



     Writing output data file C2Cn.save/
     NEW-OLD atomic charge density approx. for the potential
     NEW k-points:
   0.0000000   0.0000000   0.0000000   1.0000000
   0.0000000   0.0000000   0.0000000   1.0000000

     Check: negative core charge=   -0.000006

     negative rho (up, down):  4.803E-01 7.082E-03
     extrapolated charge  391.00846, renormalised to  391.00000

     total cpu time spent up to now is      734.5 secs

     Self-consistent Calculation

     iteration #  1     ecut=    40.00 Ry     beta= 0.70
     CG style diagonalization
     ethr =  1.00E-06,  avg # of iterations =  2.0

     Threshold (ethr) on eigenvalues was too large:
     Diagonalizing with lowered threshold

     CG style diagonalization
     ethr =  4.20E-10,  avg # of iterations = 16.5

     negative rho (up, down):  4.802E-01 1.284E-02

     total cpu time spent up to now is      922.7 secs

     total energy              =   -1940.16877254 Ry
     Harris-Foulkes estimate   =   -1939.94531846 Ry
     estimated scf accuracy    <       0.00000436 Ry

     total magnetization       =     1.00 Bohr mag/cell
     absolute magnetization    =     2.40 Bohr mag/cell

     iteration #  2     ecut=    40.00 Ry     beta= 0.70
     CG style diagonalization
     ethr =  1.12E-09,  avg # of iterations =  4.1

     negative rho (up, down):  4.803E-01 1.309E-02

     total cpu time spent up to now is      959.8 secs

     total energy              =   -1940.16877341 Ry
     Harris-Foulkes estimate   =   -1940.16877739 Ry
     estimated scf accuracy    <       0.00000820 Ry

     total magnetization       =     1.00 Bohr mag/cell
     absolute magnetization    =     2.40 Bohr mag/cell

     iteration #  3     ecut=    40.00 Ry     beta= 0.70
     CG style diagonalization
     ethr =  1.12E-09,  avg # of iterations =  3.4

     negative rho (up, down):  4.803E-01 1.326E-02

     total cpu time spent up to now is      988.0 secs

     total energy              =   -1940.16877424 Ry
     Harris-Foulkes estimate   =   -1940.16877527 Ry
     estimated scf accuracy    <       0.00000202 Ry

     total magnetization       =     1.00 Bohr mag/cell
     absolute magnetization    =     2.40 Bohr mag/cell

     iteration #  4     ecut=    40.00 Ry     beta= 0.70
     CG style diagonalization
     ethr =  5.17E-10,  avg # of iterations =  3.1

     negative rho (up, down):  4.803E-01 1.357E-02

     total cpu time spent up to now is     1012.9 secs

     total energy              =   -1940.16877394 Ry
     Harris-Foulkes estimate   =   -1940.16877463 Ry
     estimated scf accuracy    <       0.00000018 Ry

     total magnetization       =     1.00 Bohr mag/cell
     absolute magnetization    =     2.40 Bohr mag/cell

     iteration #  5     ecut=    40.00 Ry     beta= 0.70
     CG style diagonalization
     ethr =  4.70E-11,  avg # of iterations =  3.8

     negative rho (up, down):  4.803E-01 1.367E-02

     total cpu time spent up to now is     1045.2 secs

     total energy              =   -1940.16877361 Ry
     Harris-Foulkes estimate   =   -1940.16877407 Ry
     estimated scf accuracy    <       0.00000037 Ry

     total magnetization       =     1.00 Bohr mag/cell
     absolute magnetization    =     2.40 Bohr mag/cell

     iteration #  6     ecut=    40.00 Ry     beta= 0.70
     CG style diagonalization
     ethr =  4.70E-11,  avg # of iterations =  3.2

     negative rho (up, down):  4.803E-01 1.374E-02

     total cpu time spent up to now is     1071.0 secs

     total energy              =   -1940.16877354 Ry
     Harris-Foulkes estimate   =   -1940.16877367 Ry
     estimated scf accuracy    <       0.00000003 Ry

     total magnetization       =     1.00 Bohr mag/cell
     absolute magnetization    =     2.40 Bohr mag/cell

     iteration #  7     ecut=    40.00 Ry     beta= 0.70
     CG style diagonalization
     ethr =  7.23E-12,  avg # of iterations =  3.4

     negative rho (up, down):  4.803E-01 1.382E-02
 
     Magnetic moment per site:
     atom:    1    charge:    0.8510    magn:    0.0001    constr:    0.0000
     atom:    2    charge:    0.8465    magn:    0.0011    constr:    0.0000
     atom:    3    charge:    0.8476    magn:    0.0021    constr:    0.0000
     atom:    4    charge:    0.8491    magn:   -0.0004    constr:    0.0000
     atom:    5    charge:    0.8520    magn:    0.0010    constr:    0.0000
     atom:    6    charge:    0.8504    magn:   -0.0001    constr:    0.0000
     atom:    7    charge:    0.8512    magn:    0.0005    constr:    0.0000
     atom:    8    charge:    0.8501    magn:    0.0008    constr:    0.0000
     atom:    9    charge:    0.8512    magn:    0.0005    constr:    0.0000
     atom:   10    charge:    0.8440    magn:    0.0098    constr:    0.0000
     atom:   11    charge:    0.8476    magn:    0.0014    constr:    0.0000
     atom:   12    charge:    0.8530    magn:    0.0018    constr:    0.0000
     atom:   13    charge:    0.8520    magn:   -0.0004    constr:    0.0000
     atom:   14    charge:    0.8504    magn:   -0.0001    constr:    0.0000
     atom:   15    charge:    0.8503    magn:    0.0003    constr:    0.0000
     atom:   16    charge:    0.8557    magn:    0.0058    constr:    0.0000
     atom:   17    charge:    0.8620    magn:    0.0176    constr:    0.0000
     atom:   18    charge:    0.8508    magn:    0.0260    constr:    0.0000
     atom:   19    charge:    0.8609    magn:    0.0097    constr:    0.0000
     atom:   20    charge:    0.8530    magn:    0.0018    constr:    0.0000
     atom:   21    charge:    0.8520    magn:    0.0010    constr:    0.0000
     atom:   22    charge:    0.8471    magn:   -0.0000    constr:    0.0000
     atom:   23    charge:    0.8442    magn:    0.0013    constr:    0.0000
     atom:   24    charge:    0.8417    magn:    0.0104    constr:    0.0000
     atom:   25    charge:    1.6342    magn:    0.1386    constr:    0.0000
     atom:   26    charge:    0.8508    magn:    0.0260    constr:    0.0000
     atom:   27    charge:    0.8476    magn:    0.0014    constr:    0.0000
     atom:   28    charge:    0.8491    magn:   -0.0004    constr:    0.0000
     atom:   29    charge:    0.8473    magn:    0.0009    constr:    0.0000
     atom:   30    charge:    0.8480    magn:    0.0002    constr:    0.0000
     atom:   31    charge:    0.8479    magn:    0.0025    constr:    0.0000
     atom:   32    charge:    0.8417    magn:    0.0104    constr:    0.0000
     atom:   33    charge:    0.8620    magn:    0.0176    constr:    0.0000
     atom:   34    charge:    0.8440    magn:    0.0098    constr:    0.0000
     atom:   35    charge:    0.8476    magn:    0.0021    constr:    0.0000
     atom:   36    charge:    0.8464    magn:    0.0003    constr:    0.0000
     atom:   37    charge:    0.8459    magn:   -0.0004    constr:    0.0000
     atom:   38    charge:    0.8480    magn:    0.0002    constr:    0.0000
     atom:   39    charge:    0.8442    magn:    0.0013    constr:    0.0000
     atom:   40    charge:    0.8557    magn:    0.0058    constr:    0.0000
     atom:   41    charge:    0.8512    magn:    0.0005    constr:    0.0000
     atom:   42    charge:    0.8465    magn:    0.0011    constr:    0.0000
     atom:   43    charge:    0.8463    magn:    0.0009    constr:    0.0000
     atom:   44    charge:    0.8464    magn:    0.0003    constr:    0.0000
     atom:   45    charge:    0.8473    magn:    0.0009    constr:    0.0000
     atom:   46    charge:    0.8471    magn:   -0.0000    constr:    0.0000
     atom:   47    charge:    0.8503    magn:    0.0003    constr:    0.0000
     atom:   48    charge:    0.8501    magn:    0.0008    constr:    0.0000
     atom:   49    charge:    0.8510    magn:    0.0001    constr:    0.0000
     atom:   50    charge:    2.7071    magn:   -0.0008    constr:    0.0000
     atom:   51    charge:    2.7048    magn:   -0.0007    constr:    0.0000
     atom:   52    charge:    2.6955    magn:   -0.0049    constr:    0.0000
     atom:   53    charge:    2.7041    magn:   -0.0063    constr:    0.0000
     atom:   54    charge:    2.7065    magn:   -0.0002    constr:    0.0000
     atom:   55    charge:    2.6995    magn:    0.0001    constr:    0.0000
     atom:   56    charge:    2.7020    magn:    0.0001    constr:    0.0000
     atom:   57    charge:    2.7022    magn:    0.0023    constr:    0.0000
     atom:   58    charge:    2.7031    magn:   -0.0008    constr:    0.0000
     atom:   59    charge:    2.6918    magn:   -0.0263    constr:    0.0000
     atom:   60    charge:    2.6957    magn:    0.0088    constr:    0.0000
     atom:   61    charge:    2.7034    magn:   -0.0108    constr:    0.0000
     atom:   62    charge:    2.6985    magn:   -0.0060    constr:    0.0000
     atom:   63    charge:    2.6995    magn:    0.0001    constr:    0.0000
     atom:   64    charge:    2.7073    magn:   -0.0007    constr:    0.0000
     atom:   65    charge:    2.7065    magn:   -0.0057    constr:    0.0000
     atom:   66    charge:    2.7049    magn:    0.0208    constr:    0.0000
     atom:   67    charge:    1.7202    magn:    0.0782    constr:    0.0000
     atom:   68    charge:    2.6895    magn:   -0.0758    constr:    0.0000
     atom:   69    charge:    2.7034    magn:   -0.0108    constr:    0.0000
     atom:   70    charge:    2.7065    magn:   -0.0002    constr:    0.0000
     atom:   71    charge:    2.7059    magn:   -0.0004    constr:    0.0000
     atom:   72    charge:    2.7013    magn:    0.0001    constr:    0.0000
     atom:   73    charge:    2.6955    magn:   -0.0137    constr:    0.0000
     atom:   74    charge:    2.6632    magn:   -0.1155    constr:    0.0000
     atom:   75    charge:    1.7202    magn:    0.0782    constr:    0.0000
     atom:   76    charge:    2.6957    magn:    0.0088    constr:    0.0000
     atom:   77    charge:    2.7041    magn:   -0.0063    constr:    0.0000
     atom:   78    charge:    2.7049    magn:   -0.0003    constr:    0.0000
     atom:   79    charge:    2.7011    magn:   -0.0004    constr:    0.0000
     atom:   80    charge:    2.6969    magn:   -0.0082    constr:    0.0000
     atom:   81    charge:    2.6955    magn:   -0.0137    constr:    0.0000
     atom:   82    charge:    2.7049    magn:    0.0208    constr:    0.0000
     atom:   83    charge:    2.6918    magn:   -0.0263    constr:    0.0000
     atom:   84    charge:    2.6955    magn:   -0.0049    constr:    0.0000
     atom:   85    charge:    2.7023    magn:   -0.0011    constr:    0.0000
     atom:   86    charge:    2.7019    magn:   -0.0003    constr:    0.0000
     atom:   87    charge:    2.7011    magn:   -0.0004    constr:    0.0000
     atom:   88    charge:    2.7013    magn:    0.0001    constr:    0.0000
     atom:   89    charge:    2.7065    magn:   -0.0057    constr:    0.0000
     atom:   90    charge:    2.7031    magn:   -0.0008    constr:    0.0000
     atom:   91    charge:    2.7048    magn:   -0.0007    constr:    0.0000
     atom:   92    charge:    2.7084    magn:   -0.0010    constr:    0.0000
     atom:   93    charge:    2.7023    magn:   -0.0011    constr:    0.0000
     atom:   94    charge:    2.7049    magn:   -0.0003    constr:    0.0000
     atom:   95    charge:    2.7059    magn:   -0.0004    constr:    0.0000
     atom:   96    charge:    2.7073    magn:   -0.0007    constr:    0.0000
     atom:   97    charge:    2.7022    magn:    0.0023    constr:    0.0000
     atom:   98    charge:    2.7071    magn:   -0.0008    constr:    0.0000

     total cpu time spent up to now is     1099.2 secs

     End of self-consistent calculation

 ------ SPIN UP ------------


          k = 0.0000 0.0000 0.0000 ( 77463 PWs)   bands (ev):

   -21.7774 -21.5587 -21.4014 -21.3913 -21.3767 -21.3038 -21.2541 -20.8390
   -20.6617 -20.6426 -20.6289 -20.5525 -20.5395 -20.4224 -20.2923 -20.2914
   -20.2626 -20.1151 -20.1051 -19.5628 -19.4158 -19.4049 -19.3992 -19.3944
   -19.3845 -19.3767 -19.3606 -19.3142 -19.3080 -19.1662 -19.1623 -19.0356
   -18.9744 -18.9734 -18.9314 -18.7720 -18.7595 -18.5476 -18.5438 -18.5236
   -18.5116 -18.4703 -18.4190 -18.4005 -18.3686 -18.3459 -18.3286 -16.7298
   -14.8822 -13.1239 -12.7794 -12.7728 -12.7529 -12.7257 -12.7199 -12.6566
   -12.5685 -12.5358 -12.5258 -12.4811 -12.4105 -12.1535 -12.0710 -12.0567
   -12.0321 -11.9832 -11.9424 -11.5580 -11.4152 -11.4083 -11.3956 -11.3927
   -11.3745 -11.3645 -11.3628 -11.3129 -11.3006 -11.0928 -11.0482 -10.8742
   -10.7272 -10.7148 -10.6758 -10.6542 -10.5069 -10.0674 -10.0310 -10.0047
    -9.9365  -9.8813  -9.8204  -9.3977  -9.3235  -9.3136  -9.3132  -9.2937
    -9.2820  -9.2266  -9.0523  -8.9386  -8.9134  -8.9130  -8.9055  -8.8998
    -8.8906  -8.8810  -8.8800  -8.8660  -8.8361  -8.8316  -8.8267  -8.8239
    -8.8122  -8.7999  -8.7942  -8.7527  -8.7287  -8.6732  -8.6597  -8.6451
    -8.4769  -8.4578  -8.2208  -8.1962  -8.1952  -8.0979  -8.0763  -7.8999
    -7.8639  -7.8311  -7.8146  -7.8075  -7.7291  -7.7206  -7.5581  -7.5065
    -7.5043  -7.4788  -7.4576  -7.4465  -7.4321  -7.4031  -7.4015  -7.3420
    -7.3404  -7.3377  -7.3086  -7.2779  -7.2217  -7.2150  -7.2091  -7.0326
    -7.0306  -7.0013  -6.9009  -6.8245  -6.6592  -6.5469  -6.2135  -6.1956
    -6.1854  -6.1544  -6.0822  -6.0750  -6.0728  -6.0656  -6.0617  -6.0563
    -6.0463  -6.0338  -5.9964  -5.9817  -5.8695  -5.8222  -5.8087  -5.7094
    -5.5233  -5.4537  -5.4477  -5.4202  -5.3246  -5.2575  -5.1109  -5.0489
    -4.7864  -4.7844  -4.7594  -4.7542  -4.6734  -4.6732  -4.5656  -4.5196
    -4.5022  -4.4965  -4.2586  -3.4560  -0.0189   0.1767   0.6794   0.6814
     0.7076   0.7089   0.7206   0.7206   0.7744   0.7914   0.8047   0.8049
     0.8098   0.8278   0.8298   0.8512   0.8533   0.8987   0.9150   0.9233
     0.9254   1.1172   1.2000   1.2122   1.2323   1.2433   1.2920   1.3163
     1.3218   1.3260   1.3423   1.3566   1.3969   1.4360   1.4389   1.4413
     1.4525   1.4607   1.4871   1.8842   2.0877   2.0939   2.0945   2.1072
     2.1127   2.1257   2.1391   2.2095   2.3051

 ------ SPIN DOWN ----------


[...]
     atom:   55    charge:    2.6994    magn:    0.0001    constr:    0.0000
     atom:   56    charge:    2.7019    magn:    0.0001    constr:    0.0000
     atom:   57    charge:    2.7021    magn:    0.0023    constr:    0.0000
     atom:   58    charge:    2.7030    magn:   -0.0008    constr:    0.0000
     atom:   59    charge:    2.6917    magn:   -0.0263    constr:    0.0000
     atom:   60    charge:    2.6955    magn:    0.0088    constr:    0.0000
     atom:   61    charge:    2.7034    magn:   -0.0108    constr:    0.0000
     atom:   62    charge:    2.6987    magn:   -0.0060    constr:    0.0000
     atom:   63    charge:    2.6994    magn:    0.0001    constr:    0.0000
     atom:   64    charge:    2.7071    magn:   -0.0007    constr:    0.0000
     atom:   65    charge:    2.7064    magn:   -0.0057    constr:    0.0000
     atom:   66    charge:    2.7047    magn:    0.0208    constr:    0.0000
     atom:   67    charge:    1.7197    magn:    0.0781    constr:    0.0000
     atom:   68    charge:    2.6891    magn:   -0.0758    constr:    0.0000
     atom:   69    charge:    2.7034    magn:   -0.0108    constr:    0.0000
     atom:   70    charge:    2.7065    magn:   -0.0002    constr:    0.0000
     atom:   71    charge:    2.7058    magn:   -0.0004    constr:    0.0000
     atom:   72    charge:    2.7011    magn:    0.0001    constr:    0.0000
     atom:   73    charge:    2.6954    magn:   -0.0137    constr:    0.0000
     atom:   74    charge:    2.6630    magn:   -0.1156    constr:    0.0000
     atom:   75    charge:    1.7197    magn:    0.0781    constr:    0.0000
     atom:   76    charge:    2.6955    magn:    0.0088    constr:    0.0000
     atom:   77    charge:    2.7043    magn:   -0.0063    constr:    0.0000
     atom:   78    charge:    2.7049    magn:   -0.0003    constr:    0.0000
     atom:   79    charge:    2.7009    magn:   -0.0004    constr:    0.0000
     atom:   80    charge:    2.6966    magn:   -0.0082    constr:    0.0000
     atom:   81    charge:    2.6954    magn:   -0.0137    constr:    0.0000
     atom:   82    charge:    2.7047    magn:    0.0208    constr:    0.0000
     atom:   83    charge:    2.6917    magn:   -0.0263    constr:    0.0000
     atom:   84    charge:    2.6956    magn:   -0.0049    constr:    0.0000
     atom:   85    charge:    2.7023    magn:   -0.0011    constr:    0.0000
     atom:   86    charge:    2.7017    magn:   -0.0003    constr:    0.0000
     atom:   87    charge:    2.7009    magn:   -0.0004    constr:    0.0000
     atom:   88    charge:    2.7011    magn:    0.0001    constr:    0.0000
     atom:   89    charge:    2.7064    magn:   -0.0057    constr:    0.0000
     atom:   90    charge:    2.7030    magn:   -0.0008    constr:    0.0000
     atom:   91    charge:    2.7049    magn:   -0.0007    constr:    0.0000
     atom:   92    charge:    2.7084    magn:   -0.0010    constr:    0.0000
     atom:   93    charge:    2.7023    magn:   -0.0011    constr:    0.0000
     atom:   94    charge:    2.7049    magn:   -0.0003    constr:    0.0000
     atom:   95    charge:    2.7058    magn:   -0.0004    constr:    0.0000
     atom:   96    charge:    2.7071    magn:   -0.0007    constr:    0.0000
     atom:   97    charge:    2.7021    magn:    0.0023    constr:    0.0000
     atom:   98    charge:    2.7071    magn:   -0.0008    constr:    0.0000

     total cpu time spent up to now is     3297.5 secs

     End of self-consistent calculation

 ------ SPIN UP ------------


          k = 0.0000 0.0000 0.0000 ( 77468 PWs)   bands (ev):

   -21.7768 -21.5582 -21.4014 -21.3913 -21.3773 -21.3039 -21.2534 -20.8384
   -20.6621 -20.6423 -20.6288 -20.5522 -20.5396 -20.4225 -20.2924 -20.2913
   -20.2621 -20.1145 -20.1045 -19.5622 -19.4161 -19.4051 -19.3996 -19.3947
   -19.3850 -19.3766 -19.3601 -19.3137 -19.3079 -19.1661 -19.1624 -19.0355
   -18.9740 -18.9733 -18.9314 -18.7716 -18.7598 -18.5482 -18.5440 -18.5238
   -18.5114 -18.4702 -18.4196 -18.4001 -18.3687 -18.3466 -18.3288 -16.7256
   -14.8796 -13.1226 -12.7795 -12.7729 -12.7527 -12.7258 -12.7197 -12.6569
   -12.5686 -12.5362 -12.5262 -12.4807 -12.4105 -12.1541 -12.0706 -12.0568
   -12.0321 -11.9827 -11.9418 -11.5577 -11.4154 -11.4081 -11.3961 -11.3930
   -11.3754 -11.3648 -11.3629 -11.3123 -11.3004 -11.0924 -11.0476 -10.8742
   -10.7279 -10.7154 -10.6753 -10.6536 -10.5062 -10.0676 -10.0312 -10.0050
    -9.9364  -9.8811  -9.8204  -9.3971  -9.3232  -9.3141  -9.3138  -9.2938
    -9.2820  -9.2274  -9.0527  -8.9391  -8.9140  -8.9140  -8.9064  -8.8997
    -8.8908  -8.8813  -8.8795  -8.8659  -8.8361  -8.8311  -8.8271  -8.8238
    -8.8128  -8.7997  -8.7941  -8.7526  -8.7277  -8.6719  -8.6595  -8.6446
    -8.4770  -8.4568  -8.2212  -8.1971  -8.1962  -8.0973  -8.0767  -7.8995
    -7.8639  -7.8315  -7.8145  -7.8074  -7.7288  -7.7202  -7.5579  -7.5067
    -7.5041  -7.4790  -7.4579  -7.4464  -7.4322  -7.4036  -7.4018  -7.3422
    -7.3405  -7.3382  -7.3083  -7.2784  -7.2211  -7.2157  -7.2086  -7.0334
    -7.0313  -7.0023  -6.9003  -6.8236  -6.6589  -6.5467  -6.2133  -6.1957
    -6.1853  -6.1553  -6.0824  -6.0752  -6.0735  -6.0659  -6.0620  -6.0563
    -6.0463  -6.0339  -5.9962  -5.9817  -5.8691  -5.8229  -5.8088  -5.7095
    -5.5233  -5.4539  -5.4478  -5.4203  -5.3247  -5.2573  -5.1087  -5.0482
    -4.7870  -4.7848  -4.7595  -4.7543  -4.6737  -4.6731  -4.5654  -4.5197
    -4.5032  -4.4974  -4.2572  -3.4549  -0.0189   0.1766   0.6789   0.6806
     0.7075   0.7085   0.7199   0.7203   0.7741   0.7916   0.8043   0.8047
     0.8096   0.8277   0.8296   0.8512   0.8532   0.8976   0.9151   0.9223
     0.9252   1.1169   1.1999   1.2119   1.2319   1.2425   1.2913   1.3162
     1.3216   1.3258   1.3422   1.3566   1.3970   1.4356   1.4384   1.4411
     1.4523   1.4608   1.4873   1.8842   2.0870   2.0939   2.0943   2.1071
     2.1123   2.1253   2.1391   2.2095   2.2695

 ------ SPIN DOWN ----------


          k = 0.0000 0.0000 0.0000 ( 77468 PWs)   bands (ev):

   -21.7918 -21.5921 -21.4021 -21.3931 -21.3802 -21.3040 -21.2667 -20.8610
   -20.6677 -20.6529 -20.6234 -20.5525 -20.5432 -20.4297 -20.2946 -20.2897
   -20.2795 -20.1147 -20.1056 -19.5803 -19.4226 -19.4093 -19.4027 -19.3981
   -19.3875 -19.3764 -19.3699 -19.3267 -19.3015 -19.1730 -19.1705 -19.0400
   -18.9765 -18.9744 -18.9489 -18.7664 -18.7662 -18.5557 -18.5477 -18.5310
   -18.5210 -18.4749 -18.4288 -18.4057 -18.3710 -18.3510 -18.3440 -16.5624
   -14.6382 -13.0368 -12.7770 -12.7678 -12.7495 -12.7223 -12.7175 -12.6476
   -12.5666 -12.5297 -12.5234 -12.4610 -12.3985 -12.1461 -12.0686 -12.0555
   -12.0266 -11.9728 -11.9335 -11.5390 -11.4130 -11.4033 -11.3950 -11.3880
   -11.3745 -11.3636 -11.3610 -11.3067 -11.2894 -11.0670 -11.0238 -10.8619
   -10.7259 -10.7123 -10.6724 -10.6355 -10.4838 -10.0638 -10.0246 -10.0046
    -9.9272  -9.8714  -9.8073  -9.3956  -9.3176  -9.3140  -9.3040  -9.2918
    -9.2805  -9.2239  -9.0504  -8.9450  -8.9156  -8.9118  -8.9085  -8.8963
    -8.8918  -8.8881  -8.8796  -8.8630  -8.8342  -8.8309  -8.8252  -8.8214
    -8.8163  -8.7960  -8.7948  -8.7372  -8.7206  -8.6420  -8.6278  -8.6258
    -8.4633  -8.4373  -8.2223  -8.1976  -8.1960  -8.0740  -8.0704  -7.9228
    -7.8534  -7.8374  -7.8258  -7.7886  -7.7129  -7.6897  -7.5525  -7.5120
    -7.5030  -7.4766  -7.4567  -7.4512  -7.4452  -7.4045  -7.4030  -7.3430
    -7.3396  -7.3285  -7.3220  -7.2785  -7.2128  -7.1578  -7.1560  -7.0332
    -7.0294  -7.0025  -6.8608  -6.7982  -6.6428  -6.5221  -6.2378  -6.1938
    -6.1887  -6.1577  -6.0909  -6.0802  -6.0697  -6.0668  -6.0577  -6.0510
    -6.0427  -6.0407  -6.0139  -5.9590  -5.8149  -5.8089  -5.7865  -5.6867
    -5.5283  -5.4497  -5.4492  -5.4349  -5.2580  -5.2160  -5.0638  -4.9786
    -4.8019  -4.7892  -4.7779  -4.7651  -4.6769  -4.6574  -4.5696  -4.5188
    -4.5121  -4.5064  -4.1839  -2.8875   0.1835   0.4906   0.6990   0.7134
     0.7136   0.7324   0.7472   0.7483   0.7911   0.8031   0.8052   0.8072
     0.8112   0.8351   0.8541   0.8616   0.8859   0.9022   0.9464   0.9542
     1.0489   1.1656   1.2216   1.2572   1.2757   1.3159   1.3208   1.3257
     1.3371   1.3448   1.3494   1.3740   1.4217   1.4334   1.4359   1.4388
     1.4498   1.4590   1.4923   1.8871   2.0957   2.1000   2.1109   2.1213
     2.1444   2.1560   2.1560   2.2128   2.2867

     highest occupied, lowest unoccupied level (ev):    -4.1839   -4.2572

!    total energy              =   -1940.16880239 Ry
     Harris-Foulkes estimate   =   -1940.16880239 Ry
     estimated scf accuracy    <          2.3E-11 Ry

     total all-electron energy =     -7769.993279 Ry

     The total energy is the sum of the following terms:

     one-electron contribution =  -10644.29597150 Ry
     hartree contribution      =    5407.73475513 Ry
     xc contribution           =    -430.65870721 Ry
     ewald contribution        =    4370.49950374 Ry
     DFT-D3 Dispersion         =      -0.27013348 Ry
     one-center paw contrib.   =    -643.17824907 Ry

     total magnetization       =     1.00 Bohr mag/cell
     absolute magnetization    =     2.40 Bohr mag/cell

     convergence has been achieved in  22 iterations

     negative rho (up, down):  4.803E-01 1.386E-02

     Forces acting on atoms (cartesian axes, Ry/au):

     atom    1 type  1   force =    -0.00007703    0.00001564    0.00000000
     atom    2 type  1   force =    -0.00012785   -0.00000305    0.00000000
     atom    3 type  1   force =    -0.00005253   -0.00013912    0.00000000
     atom    4 type  1   force =    -0.00005763   -0.00014782    0.00000000
     atom    5 type  1   force =    -0.00000079    0.00000165    0.00000000
     atom    6 type  1   force =     0.00008230   -0.00006582    0.00000000
     atom    7 type  1   force =     0.00005613   -0.00003292    0.00000000
     atom    8 type  1   force =     0.00003094   -0.00003342    0.00000000
     atom    9 type  1   force =    -0.00004184    0.00002111    0.00000000
     atom   10 type  1   force =    -0.00000135   -0.00002609    0.00000000
     atom   11 type  1   force =     0.00010081   -0.00004005    0.00000000
     atom   12 type  1   force =     0.00002580   -0.00010228    0.00000000
     atom   13 type  1   force =     0.00007801   -0.00004625    0.00000000
     atom   14 type  1   force =     0.00009705   -0.00003942    0.00000000
     atom   15 type  1   force =     0.00010309   -0.00001672    0.00000000
     atom   16 type  1   force =    -0.00003664   -0.00003295    0.00000000
     atom   17 type  1   force =    -0.00009893    0.00011397    0.00000000
     atom   18 type  1   force =     0.00002763   -0.00002666    0.00000000
     atom   19 type  1   force =     0.00015712   -0.00009198    0.00000000
     atom   20 type  1   force =     0.00010031    0.00002730    0.00000000
     atom   21 type  1   force =    -0.00000262   -0.00000040    0.00000000
     atom   22 type  1   force =    -0.00000206    0.00007963    0.00000000
     atom   23 type  1   force =     0.00005559   -0.00002257    0.00000000
     atom   24 type  1   force =    -0.00007784    0.00001478    0.00000000
     atom   25 type  4   force =    -0.00018080    0.00010671    0.00000000
     atom   26 type  1   force =     0.00003662   -0.00001114    0.00000000
     atom   27 type  1   force =     0.00008548   -0.00006880    0.00000000
     atom   28 type  1   force =     0.00009845    0.00012427    0.00000000
     atom   29 type  1   force =    -0.00003073    0.00011381    0.00000000
     atom   30 type  1   force =     0.00005888    0.00005785    0.00000000
     atom   31 type  1   force =     0.00000809   -0.00000467    0.00000000
     atom   32 type  1   force =    -0.00005210    0.00006030    0.00000000
     atom   33 type  1   force =    -0.00014748    0.00002888    0.00000000
     atom   34 type  1   force =     0.00002259    0.00001388    0.00000000
     atom   35 type  1   force =     0.00009558    0.00011530    0.00000000
     atom   36 type  1   force =     0.00000429    0.00012280    0.00000000
     atom   37 type  1   force =    -0.00006186    0.00003649    0.00000000
     atom   38 type  1   force =    -0.00002009   -0.00007940    0.00000000
     atom   39 type  1   force =     0.00004824   -0.00003671    0.00000000
     atom   40 type  1   force =     0.00001080    0.00004880    0.00000000
     atom   41 type  1   force =    -0.00003778    0.00002586    0.00000000
     atom   42 type  1   force =    -0.00005997    0.00011200    0.00000000
     atom   43 type  1   force =    -0.00002828    0.00001690    0.00000000
     atom   44 type  1   force =    -0.00010368   -0.00006389    0.00000000
     atom   45 type  1   force =    -0.00011322   -0.00002930    0.00000000
     atom   46 type  1   force =    -0.00006863   -0.00003772    0.00000000
     atom   47 type  1   force =     0.00006732   -0.00008056    0.00000000
     atom   48 type  1   force =     0.00004512   -0.00001065    0.00000000
     atom   49 type  1   force =    -0.00005169    0.00005829    0.00000000
     atom   50 type  2   force =     0.00006721   -0.00011683    0.00000000
     atom   51 type  2   force =    -0.00002784   -0.00005012    0.00000000
     atom   52 type  2   force =     0.00001356   -0.00006218    0.00000000
     atom   53 type  2   force =     0.00006113   -0.00003562    0.00000000
     atom   54 type  2   force =    -0.00009229    0.00000725    0.00000000
     atom   55 type  2   force =     0.00001195    0.00009364    0.00000000
     atom   56 type  2   force =     0.00014881   -0.00008466    0.00000000
     atom   57 type  2   force =     0.00008138   -0.00014565    0.00000000
     atom   58 type  2   force =    -0.00002174   -0.00019142    0.00000000
     atom   59 type  2   force =    -0.00001135   -0.00003459    0.00000000
     atom   60 type  2   force =     0.00010424    0.00002113    0.00000000
     atom   61 type  2   force =     0.00002620    0.00001240    0.00000000
     atom   62 type  2   force =    -0.00005683    0.00003389    0.00000000
     atom   63 type  2   force =    -0.00007425   -0.00005576    0.00000000
     atom   64 type  2   force =    -0.00008158   -0.00005468    0.00000000
     atom   65 type  2   force =     0.00000526   -0.00014048    0.00000000
     atom   66 type  2   force =    -0.00011203   -0.00000288    0.00000000
     atom   67 type  3   force =    -0.00011943    0.00003079    0.00000000
     atom   68 type  2   force =     0.00012025   -0.00006882    0.00000000
     atom   69 type  2   force =     0.00000325   -0.00002748    0.00000000
     atom   70 type  2   force =    -0.00005191    0.00007707    0.00000000
     atom   71 type  2   force =    -0.00013051    0.00006168    0.00000000
     atom   72 type  2   force =    -0.00003935    0.00002059    0.00000000
     atom   73 type  2   force =    -0.00006945   -0.00005983    0.00000000
     atom   74 type  2   force =    -0.00004459    0.00002581    0.00000000
     atom   75 type  5   force =    -0.00008645    0.00008609    0.00000000
     atom   76 type  2   force =     0.00003341   -0.00010007    0.00000000
     atom   77 type  2   force =     0.00006120   -0.00003457    0.00000000
     atom   78 type  2   force =     0.00001243    0.00005506    0.00000000
     atom   79 type  2   force =    -0.00008245    0.00006532    0.00000000
     atom   80 type  2   force =    -0.00003690    0.00002071    0.00000000
     atom   81 type  2   force =     0.00001612    0.00009020    0.00000000
     atom   82 type  2   force =    -0.00005415    0.00009824    0.00000000
     atom   83 type  2   force =     0.00002329    0.00002660    0.00000000
     atom   84 type  2   force =     0.00005939    0.00001926    0.00000000
     atom   85 type  2   force =     0.00003186    0.00000624    0.00000000
     atom   86 type  2   force =    -0.00004676    0.00002605    0.00000000
     atom   87 type  2   force =    -0.00009883    0.00003744    0.00000000
     atom   88 type  2   force =    -0.00003872    0.00002317    0.00000000
     atom   89 type  2   force =     0.00012310    0.00006513    0.00000000
     atom   90 type  2   force =     0.00015353    0.00011410    0.00000000
     atom   91 type  2   force =     0.00002810    0.00004939    0.00000000
     atom   92 type  2   force =     0.00007114   -0.00004064    0.00000000
     atom   93 type  2   force =     0.00001063   -0.00003160    0.00000000
     atom   94 type  2   force =    -0.00004162   -0.00003963    0.00000000
     atom   95 type  2   force =    -0.00011896    0.00008185    0.00000000
     atom   96 type  2   force =     0.00000609    0.00009822    0.00000000
     atom   97 type  2   force =     0.00016660    0.00000285    0.00000000
     atom   98 type  2   force =     0.00013508    0.00000149    0.00000000

     Total force =     0.001009     Total SCF correction =     0.000009


     Computing stress (Cartesian axis) and pressure


     negative rho (up, down):  4.803E-01 1.386E-02
          total   stress  (Ry/bohr**3)                   (kbar)     P=   -0.18
  -0.00000014   0.00000001   0.00000000         -0.02      0.00      0.00
   0.00000001  -0.00000013   0.00000000          0.00     -0.02      0.00
   0.00000000   0.00000000  -0.00000334          0.00      0.00     -0.49


     Writing output data file C2Cn.save/
 
     init_run     :      9.56s CPU     10.09s WALL (       2 calls)
     electrons    :   3145.75s CPU   3182.69s WALL (       6 calls)
     update_pot   :     15.38s CPU     16.02s WALL (       4 calls)
     forces       :     22.49s CPU     23.62s WALL (       6 calls)
     stress       :     70.38s CPU     71.16s WALL (       6 calls)

     Called by init_run:
     wfcinit      :      3.52s CPU      3.75s WALL (       2 calls)
     potinit      :      2.05s CPU      2.09s WALL (       2 calls)
     hinit0       :      3.05s CPU      3.16s WALL (       2 calls)

     Called by electrons:
     c_bands      :   3053.64s CPU   3084.66s WALL (      82 calls)
     sum_band     :     46.08s CPU     48.07s WALL (      82 calls)
     v_of_rho     :     15.73s CPU     16.22s WALL (      84 calls)
     newd         :      6.01s CPU      6.88s WALL (      84 calls)
     PAW_pot      :     18.09s CPU     18.41s WALL (      88 calls)
     mix_rho      :      1.32s CPU      1.57s WALL (      82 calls)

     Called by c_bands:
     init_us_2    :      2.20s CPU      2.32s WALL (     364 calls)
     rcgdiagg     :   2966.49s CPU   2995.18s WALL (     182 calls)
     wfcrot       :     87.82s CPU     89.90s WALL (     166 calls)

     Called by sum_band:
     sum_band:bec :      0.09s CPU      0.09s WALL (     172 calls)
     addusdens    :      5.07s CPU      6.23s WALL (      82 calls)

     Called by *cgdiagg:
     h_psi        :   1403.42s CPU   1418.53s WALL (  136462 calls)
     s_psi        :    618.19s CPU    624.73s WALL (  272758 calls)
     rdiaghg      :      2.85s CPU      2.98s WALL (     166 calls)

     Called by h_psi:
     h_psi:pot    :   1401.82s CPU   1416.91s WALL (  136462 calls)
     h_psi:calbec :    538.74s CPU    543.90s WALL (  136462 calls)
     vloc_psi     :    535.01s CPU    541.85s WALL (  136462 calls)
     add_vuspsi   :    326.41s CPU    329.81s WALL (  136462 calls)
     hs_1psi      :   1645.71s CPU   1662.84s WALL (  136296 calls)
     s_1psi       :    763.77s CPU    770.03s WALL (  136296 calls)

     General routines
     calbec       :   1010.11s CPU   1019.67s WALL (  272990 calls)
     fft          :     14.62s CPU     14.90s WALL (    1626 calls)
     ffts         :      0.65s CPU      0.67s WALL (     164 calls)
     fftw         :    521.41s CPU    528.03s WALL (  334184 calls)
 
     Parallel routines
     fft_scatt_xy :     43.78s CPU     44.30s WALL (  335974 calls)
     fft_scatt_yz :    172.78s CPU    175.35s WALL (  335974 calls)
 
     PWSCF        :  54m29.07s CPU  55m17.14s WALL

 
   This run was terminated on:  19:40:47   1Jul2021            

=------------------------------------------------------------------------------=
   JOB DONE.
=------------------------------------------------------------------------------=
