
     Program PWSCF v.6.4.1 starts on  5Jun2021 at 19: 6:11 

     This program is part of the open-source Quantum ESPRESSO suite
     for quantum simulation of materials; please cite
         "P. Giannozzi et al., J. Phys.:Condens. Matter 21 395502 (2009);
         "P. Giannozzi et al., J. Phys.:Condens. Matter 29 465901 (2017);
          URL http://www.quantum-espresso.org", 
     in publications or presentations arising from this work. More details at
     http://www.quantum-espresso.org/quote

     Parallel version (MPI), running on    16 processors

     MPI processes distributed on     1 nodes
     R & G space division:  proc/nbgrp/npool/nimage =      16
     Waiting for input...
     Reading input from standard input

     Current dimensions of program PWSCF are:
     Max number of different atomic species (ntypx) = 10
     Max number of k-points (npk) =  40000
     Max angular momentum in pseudopotentials (lmaxx) =  3
               file N.pbe-n-kjpaw_psl.1.0.0.UPF: wavefunction(s)  2S renormalized

     --------------------------------------------
     Parameters for DFT-D3 Dispersion Correction:
     --------------------------------------------
       Reference C6 values for interpolation: 

         atom   Coordination number   C6
         B          0.000           214.36
         B          0.971           150.74
         B          1.944           106.23
         B          2.913            62.89
         B          4.586            56.06
         N          0.000            50.54
         N          0.994            44.25
         N          2.014            39.35
         N          2.990            31.16

       Values used:

         atom   Coordination number  R0_AB[au]  C6      C8
         B          3.323            3.039     62.90   2506.31
         B          3.323            3.039     62.90   2506.30
         B          3.323            3.039     62.90   2506.30
         B          3.323            3.039     62.90   2506.31
         B          3.323            3.039     62.90   2506.30
         B          3.323            3.039     62.90   2506.30
         B          3.323            3.039     62.90   2506.31
         B          3.323            3.039     62.90   2506.30
         B          3.323            3.039     62.90   2506.30
         B          3.323            3.039     62.90   2506.30
         B          3.323            3.039     62.90   2506.30
         B          3.323            3.039     62.90   2506.30
         B          3.323            3.039     62.90   2506.30
         B          3.323            3.039     62.90   2506.30
         B          3.323            3.039     62.90   2506.30
         B          3.323            3.039     62.90   2506.30
         B          3.323            3.039     62.90   2506.30
         B          3.323            3.039     62.90   2506.30
         B          3.323            3.039     62.90   2506.30
         B          3.323            3.039     62.90   2506.30
         B          3.323            3.039     62.90   2506.30
         B          3.323            3.039     62.90   2506.30
         B          3.323            3.039     62.90   2506.30
         B          3.323            3.039     62.90   2506.30
         B          3.323            3.039     62.90   2506.31
         B          3.323            3.039     62.90   2506.30
         B          3.323            3.039     62.90   2506.30
         B          3.323            3.039     62.90   2506.31
         B          3.323            3.039     62.90   2506.30
         B          3.323            3.039     62.90   2506.30
         B          3.323            3.039     62.90   2506.30
         B          3.323            3.039     62.90   2506.30
         B          3.323            3.039     62.90   2506.30
         B          3.323            3.039     62.90   2506.30
         B          3.323            3.039     62.90   2506.30
         B          3.323            3.039     62.90   2506.30
         B          3.323            3.039     62.90   2506.30
         B          3.323            3.039     62.90   2506.30
         B          3.323            3.039     62.90   2506.30
         B          3.323            3.039     62.90   2506.30
         B          3.323            3.039     62.90   2506.30
         B          3.323            3.039     62.90   2506.30
         B          3.323            3.039     62.90   2506.30
         B          3.323            3.039     62.90   2506.30
         B          3.323            3.039     62.90   2506.30
         B          3.323            3.039     62.90   2506.30
         B          3.323            3.039     62.90   2506.30
         B          3.323            3.039     62.90   2506.30
         B          3.323            3.039     62.90   2506.31
         N          3.129            2.478     31.22    688.75
         N          3.129            2.478     31.22    688.75
         N          3.129            2.478     31.22    688.75
         N          3.129            2.478     31.22    688.75
         N          3.129            2.478     31.22    688.75
         N          3.129            2.478     31.22    688.75
         N          3.129            2.478     31.22    688.75
         N          3.129            2.478     31.22    688.75
         N          3.129            2.478     31.22    688.75
         N          3.129            2.478     31.22    688.75
         N          3.129            2.478     31.22    688.75
         N          3.129            2.478     31.22    688.75
         N          3.129            2.478     31.22    688.75
         N          3.129            2.478     31.22    688.75
         N          3.129            2.478     31.22    688.75
         N          3.129            2.478     31.22    688.75
         N          3.129            2.478     31.22    688.75
         N          3.129            2.478     31.22    688.75
         N          3.129            2.478     31.22    688.75
         N          3.129            2.478     31.22    688.75
         N          3.129            2.478     31.22    688.75
         N          3.129            2.478     31.22    688.75
         N          3.129            2.478     31.22    688.75
         N          3.129            2.478     31.22    688.75
         N          3.129            2.478     31.22    688.75
         N          3.129            2.478     31.22    688.75
         N          3.129            2.478     31.22    688.75
         N          3.129            2.478     31.22    688.75
         N          3.129            2.478     31.22    688.75
         N          3.129            2.478     31.22    688.75
         N          3.129            2.478     31.22    688.75
         N          3.129            2.478     31.22    688.75
         N          3.129            2.478     31.22    688.75
         N          3.129            2.478     31.22    688.75
         N          3.129            2.478     31.22    688.75
         N          3.129            2.478     31.22    688.75
         N          3.129            2.478     31.22    688.75
         N          3.129            2.478     31.22    688.75
         N          3.129            2.478     31.22    688.75
         N          3.129            2.478     31.22    688.75
         N          3.129            2.478     31.22    688.75
         N          3.129            2.478     31.22    688.75
         N          3.129            2.478     31.22    688.75
         N          3.129            2.478     31.22    688.75
         N          3.129            2.478     31.22    688.75
         N          3.129            2.478     31.22    688.75
         N          3.129            2.478     31.22    688.75
         N          3.129            2.478     31.22    688.75
         N          3.129            2.478     31.22    688.75

         Molecular C6 ( Ry / a.u.^6 ) =    434808.21


     gamma-point specific algorithms are used

     Subspace diagonalization in iterative solution of the eigenvalue problem:
     one sub-group per band group will be used
     scalapack distributed-memory algorithm (size of sub-group:  2*  2 procs)

     Found symmetry operation: I + ( -0.0000 -0.4286  0.0000)
     This is a supercell, fractional translations are disabled
     Message from routine setup:
     DEPRECATED: symmetry with ibrav=0, use correct ibrav instead
 
     Parallelization info
     --------------------
     sticks:   dense  smooth     PW     G-vecs:    dense   smooth      PW
     Min        2376     758    189               426028    77107    9633
     Max        2378     760    192               426036    77114    9640
     Sum       38023   12145   3049              6816515  1233789  154157
 


     bravais-lattice index     =            0
     lattice parameter (alat)  =      33.2346  a.u.
     unit-cell volume          =   36104.9856 (a.u.)^3
     number of atoms/cell      =           98
     number of atomic types    =            2
     number of electrons       =       392.00
     number of Kohn-Sham states=          196
     kinetic-energy cutoff     =      40.0000  Ry
     charge density cutoff     =     500.0000  Ry
     convergence threshold     =      1.0E-06
     mixing beta               =       0.7000
     number of iterations used =            8  plain     mixing
     Exchange-correlation      = SLA PW PBX PBC ( 1  4  3  4 0 0)
     Using LIBXC version       =    4   3   4
     nstep                     =           50


     celldm(1)=  33.234611  celldm(2)=   0.000000  celldm(3)=   0.000000
     celldm(4)=   0.000000  celldm(5)=   0.000000  celldm(6)=   0.000000

     crystal axes: (cart. coord. in units of alat)
               a(1) = (   0.999340   0.000000   0.000000 )  
               a(2) = (  -0.499670   0.865454   0.000000 )  
               a(3) = (   0.000000   0.000000   1.137204 )  

     reciprocal axes: (cart. coord. in units 2 pi/alat)
               b(1) = (  1.000660  0.577732  0.000000 )  
               b(2) = (  0.000000  1.155463  0.000000 )  
               b(3) = (  0.000000  0.000000  0.879350 )  


     PseudoPot. # 1 for B  read from file:
     ./pseudo/B.pbe-n-kjpaw_psl.1.0.0.UPF
     MD5 check sum: 8c825a5969375aca5c2c6ad5945b3059
     Pseudo is Projector augmented-wave + core cor, Zval =  3.0
     Generated using "atomic" code by A. Dal Corso v.6.3
     Shape of augmentation charge: PSQ
     Using radial grid of 1059 points,  4 beta functions with: 
                l(1) =   0
                l(2) =   0
                l(3) =   1
                l(4) =   1
     Q(r) pseudized with 0 coefficients 


     PseudoPot. # 2 for N  read from file:
     ./pseudo/N.pbe-n-kjpaw_psl.1.0.0.UPF
     MD5 check sum: 14c48229446f9f2d411169a3abcbc3fa
     Pseudo is Projector augmented-wave + core cor, Zval =  5.0
     Generated using "atomic" code by A. Dal Corso v.6.3
     Shape of augmentation charge: PSQ
     Using radial grid of 1085 points,  4 beta functions with: 
                l(1) =   0
                l(2) =   0
                l(3) =   1
                l(4) =   1
     Q(r) pseudized with 0 coefficients 


     atomic species   valence    mass     pseudopotential
        B              3.00    10.00000     B ( 1.00)
        N              5.00    14.00000     N ( 1.00)

     12 Sym. Ops. (no inversion) found



   Cartesian axes

     site n.     atom                  positions (alat units)
         1           B   tau(   1) = (   0.0000000   0.0824321   0.5686018  )
         2           B   tau(   2) = (  -0.0713835   0.2060635   0.5686018  )
         3           B   tau(   3) = (  -0.1427572   0.3296900   0.5686018  )
         4           B   tau(   4) = (  -0.2141406   0.4533357   0.5686018  )
         5           B   tau(   5) = (  -0.2855287   0.5769774   0.5686018  )
         6           B   tau(   6) = (  -0.3569055   0.7006021   0.5686018  )
         7           B   tau(   7) = (  -0.4282817   0.8242377   0.5686018  )
         8           B   tau(   8) = (   0.1427717   0.0824293   0.5686018  )
         9           B   tau(   9) = (   0.0713835   0.2060635   0.5686018  )
        10           B   tau(  10) = (  -0.0000000   0.3296956   0.5686018  )
        11           B   tau(  11) = (  -0.0713743   0.4533359   0.5686018  )
        12           B   tau(  12) = (  -0.1427572   0.5769748   0.5686018  )
        13           B   tau(  13) = (  -0.2141452   0.7006060   0.5686018  )
        14           B   tau(  14) = (  -0.2855220   0.8242420   0.5686018  )
        15           B   tau(  15) = (   0.2855217   0.0824278   0.5686018  )
        16           B   tau(  16) = (   0.2141454   0.2060552   0.5686018  )
        17           B   tau(  17) = (   0.1427572   0.3296900   0.5686018  )
        18           B   tau(  18) = (   0.0713733   0.4533359   0.5686018  )
        19           B   tau(  19) = (  -0.0000005   0.5769695   0.5686018  )
        20           B   tau(  20) = (  -0.0713834   0.7005978   0.5686018  )
        21           B   tau(  21) = (  -0.1427715   0.8242402   0.5686018  )
        22           B   tau(  22) = (   0.4282814   0.0824314   0.5686018  )
        23           B   tau(  23) = (   0.3569046   0.2060590   0.5686018  )
        24           B   tau(  24) = (   0.2855284   0.3296869   0.5686018  )
        25           B   tau(  25) = (   0.2141396   0.4533357   0.5686018  )
        26           B   tau(  26) = (   0.1427562   0.5769748   0.5686018  )
        27           B   tau(  27) = (   0.0713824   0.7005978   0.5686018  )
        28           B   tau(  28) = (  -0.0000005   0.8242371   0.5686018  )
        29           B   tau(  29) = (   0.5710586   0.0824314   0.5686018  )
        30           B   tau(  30) = (   0.4996705   0.2060654   0.5686018  )
        31           B   tau(  31) = (   0.4282936   0.3296938   0.5686018  )
        32           B   tau(  32) = (   0.3569170   0.4533356   0.5686018  )
        33           B   tau(  33) = (   0.2855287   0.5769774   0.5686018  )
        34           B   tau(  34) = (   0.2141452   0.7006060   0.5686018  )
        35           B   tau(  35) = (   0.1427715   0.8242402   0.5686018  )
        36           B   tau(  36) = (   0.7138182   0.0824278   0.5686018  )
        37           B   tau(  37) = (   0.6424354   0.2060590   0.5686018  )
        38           B   tau(  38) = (   0.5710473   0.3296938   0.5686018  )
        39           B   tau(  39) = (   0.4996700   0.4533358   0.5686018  )
        40           B   tau(  40) = (   0.4282937   0.5769708   0.5686018  )
        41           B   tau(  41) = (   0.3569055   0.7006021   0.5686018  )
        42           B   tau(  42) = (   0.2855220   0.8242420   0.5686018  )
        43           B   tau(  43) = (   0.8565683   0.0824293   0.5686018  )
        44           B   tau(  44) = (   0.7851945   0.2060552   0.5686018  )
        45           B   tau(  45) = (   0.7138116   0.3296869   0.5686018  )
        46           B   tau(  46) = (   0.6424230   0.4533356   0.5686018  )
        47           B   tau(  47) = (   0.5710463   0.5769708   0.5686018  )
        48           B   tau(  48) = (   0.4996700   0.7005953   0.5686018  )
        49           B   tau(  49) = (   0.4282817   0.8242377   0.5686018  )
        50           N   tau(  50) = (   0.0713849   0.0412141   0.5686018  )
        51           N   tau(  51) = (   0.0000000   0.1648534   0.5686018  )
        52           N   tau(  52) = (  -0.0713789   0.2884837   0.5686018  )
        53           N   tau(  53) = (  -0.1427578   0.4121197   0.5686018  )
        54           N   tau(  54) = (  -0.2141428   0.5357621   0.5686018  )
        55           N   tau(  55) = (  -0.2855252   0.6593960   0.5686018  )
        56           N   tau(  56) = (  -0.3569027   0.7830271   0.5686018  )
        57           N   tau(  57) = (   0.2141461   0.0412122   0.5686018  )
        58           N   tau(  58) = (   0.1427639   0.1648499   0.5686018  )
        59           N   tau(  59) = (   0.0713789   0.2884837   0.5686018  )
        60           N   tau(  60) = (   0.0000000   0.4121197   0.5686018  )
        61           N   tau(  61) = (  -0.0713794   0.5357589   0.5686018  )
        62           N   tau(  62) = (  -0.1427639   0.6593940   0.5686018  )
        63           N   tau(  63) = (  -0.2141463   0.7830279   0.5686018  )
        64           N   tau(  64) = (   0.3569027   0.0412129   0.5686018  )
        65           N   tau(  65) = (   0.2855251   0.1648480   0.5686018  )
        66           N   tau(  66) = (   0.2141428   0.2884803   0.5686018  )
        67           N   tau(  67) = (   0.1427578   0.4121197   0.5686018  )
        68           N   tau(  68) = (   0.0713784   0.5357589   0.5686018  )
        69           N   tau(  69) = (  -0.0000005   0.6593908   0.5686018  )
        70           N   tau(  70) = (  -0.0713850   0.7830259   0.5686018  )
        71           N   tau(  71) = (   0.4996705   0.0412142   0.5686018  )
        72           N   tau(  72) = (   0.4282881   0.1648520   0.5686018  )
        73           N   tau(  73) = (   0.3569106   0.2884815   0.5686018  )
        74           N   tau(  74) = (   0.2855282   0.4121194   0.5686018  )
        75           N   tau(  75) = (   0.2141428   0.5357621   0.5686018  )
        76           N   tau(  76) = (   0.1427639   0.6593940   0.5686018  )
        77           N   tau(  77) = (   0.0713850   0.7830259   0.5686018  )
        78           N   tau(  78) = (   0.6424373   0.0412129   0.5686018  )
        79           N   tau(  79) = (   0.5710529   0.1648520   0.5686018  )
        80           N   tau(  80) = (   0.4996705   0.2884843   0.5686018  )
        81           N   tau(  81) = (   0.4282930   0.4121194   0.5686018  )
        82           N   tau(  82) = (   0.3569101   0.5357606   0.5686018  )
        83           N   tau(  83) = (   0.2855252   0.6593960   0.5686018  )
        84           N   tau(  84) = (   0.2141463   0.7830279   0.5686018  )
        85           N   tau(  85) = (   0.7851938   0.0412122   0.5686018  )
        86           N   tau(  86) = (   0.7138149   0.1648480   0.5686018  )
        87           N   tau(  87) = (   0.6424304   0.2884815   0.5686018  )
        88           N   tau(  88) = (   0.5710480   0.4121194   0.5686018  )
        89           N   tau(  89) = (   0.4996700   0.5357578   0.5686018  )
        90           N   tau(  90) = (   0.4282877   0.6593917   0.5686018  )
        91           N   tau(  91) = (   0.3569027   0.7830271   0.5686018  )
        92           N   tau(  92) = (   0.9279551   0.0412141   0.5686018  )
        93           N   tau(  93) = (   0.8565761   0.1648499   0.5686018  )
        94           N   tau(  94) = (   0.7851972   0.2884803   0.5686018  )
        95           N   tau(  95) = (   0.7138127   0.4121194   0.5686018  )
        96           N   tau(  96) = (   0.6424299   0.5357606   0.5686018  )
        97           N   tau(  97) = (   0.5710523   0.6593917   0.5686018  )
        98           N   tau(  98) = (   0.4996700   0.7830256   0.5686018  )

     number of k points=     1
                       cart. coord. in units 2pi/alat
        k(    1) = (   0.0000000   0.0000000   0.0000000), wk =   2.0000000

     Dense  grid:  3408258 G-vectors     FFT dimensions: ( 240, 240, 270)

     Smooth grid:   616895 G-vectors     FFT dimensions: ( 135, 135, 160)

     Estimated max dynamical RAM per process >       1.30 GB

     Estimated total dynamical RAM >      20.85 GB

     Initial potential from superposition of free atoms

     starting charge  391.98580, renormalised to  392.00000

     negative rho (up, down):  4.265E-03 0.000E+00
     Starting wfcs are  392 randomized atomic wfcs
     Checking if some PAW data can be deallocated... 

     total cpu time spent up to now is       34.5 secs

     Self-consistent Calculation

     iteration #  1     ecut=    40.00 Ry     beta= 0.70
     CG style diagonalization
     ethr =  1.00E-02,  avg # of iterations =  3.0

     negative rho (up, down):  4.367E-03 0.000E+00

     total cpu time spent up to now is       84.5 secs

     total energy              =   -1946.38138817 Ry
     Harris-Foulkes estimate   =   -1960.09876472 Ry
     estimated scf accuracy    <      20.28599279 Ry

     iteration #  2     ecut=    40.00 Ry     beta= 0.70
     CG style diagonalization
     ethr =  5.17E-03,  avg # of iterations =  4.2

     negative rho (up, down):  1.639E-02 0.000E+00

     total cpu time spent up to now is      138.0 secs

     total energy              =   -1951.15551219 Ry
     Harris-Foulkes estimate   =   -1957.10900411 Ry
     estimated scf accuracy    <      11.56983463 Ry

     iteration #  3     ecut=    40.00 Ry     beta= 0.70
     CG style diagonalization
     ethr =  2.95E-03,  avg # of iterations =  4.0

     negative rho (up, down):  7.813E-03 0.000E+00

     total cpu time spent up to now is      189.0 secs

     total energy              =   -1953.47341192 Ry
     Harris-Foulkes estimate   =   -1953.49320226 Ry
     estimated scf accuracy    <       0.08726067 Ry

     iteration #  4     ecut=    40.00 Ry     beta= 0.70
     CG style diagonalization
     ethr =  2.23E-05,  avg # of iterations =  4.5

     negative rho (up, down):  9.386E-03 0.000E+00

     total cpu time spent up to now is      246.7 secs

     total energy              =   -1953.56958684 Ry
     Harris-Foulkes estimate   =   -1953.58079021 Ry
     estimated scf accuracy    <       0.04630268 Ry

     iteration #  5     ecut=    40.00 Ry     beta= 0.70
     CG style diagonalization
     ethr =  1.18E-05,  avg # of iterations =  3.0

     negative rho (up, down):  7.929E-03 0.000E+00

     total cpu time spent up to now is      284.6 secs

     total energy              =   -1953.55704426 Ry
     Harris-Foulkes estimate   =   -1953.57035764 Ry
     estimated scf accuracy    <       0.02437331 Ry

     iteration #  6     ecut=    40.00 Ry     beta= 0.70
     CG style diagonalization
     ethr =  6.22E-06,  avg # of iterations =  4.2

     negative rho (up, down):  7.789E-03 0.000E+00

     total cpu time spent up to now is      337.5 secs

     total energy              =   -1953.56445408 Ry
     Harris-Foulkes estimate   =   -1953.56726476 Ry
     estimated scf accuracy    <       0.00738214 Ry

     iteration #  7     ecut=    40.00 Ry     beta= 0.70
     CG style diagonalization
     ethr =  1.88E-06,  avg # of iterations =  3.1

     negative rho (up, down):  7.649E-03 0.000E+00

     total cpu time spent up to now is      377.0 secs

     total energy              =   -1953.56439802 Ry
     Harris-Foulkes estimate   =   -1953.56498968 Ry
     estimated scf accuracy    <       0.00125583 Ry

     iteration #  8     ecut=    40.00 Ry     beta= 0.70
     CG style diagonalization
     ethr =  3.20E-07,  avg # of iterations =  4.3

     negative rho (up, down):  7.656E-03 0.000E+00

     total cpu time spent up to now is      432.5 secs

     total energy              =   -1953.56485102 Ry
     Harris-Foulkes estimate   =   -1953.56486644 Ry
     estimated scf accuracy    <       0.00003991 Ry

     iteration #  9     ecut=    40.00 Ry     beta= 0.70
     CG style diagonalization
     ethr =  1.02E-08,  avg # of iterations =  3.4

     negative rho (up, down):  7.675E-03 0.000E+00

     total cpu time spent up to now is      475.8 secs

     total energy              =   -1953.56485382 Ry
     Harris-Foulkes estimate   =   -1953.56485503 Ry
     estimated scf accuracy    <       0.00000714 Ry

     iteration # 10     ecut=    40.00 Ry     beta= 0.70
     CG style diagonalization
     ethr =  1.82E-09,  avg # of iterations =  3.3

     negative rho (up, down):  7.680E-03 0.000E+00

     total cpu time spent up to now is      517.8 secs

     total energy              =   -1953.56485301 Ry
     Harris-Foulkes estimate   =   -1953.56485448 Ry
     estimated scf accuracy    <       0.00000263 Ry

     iteration # 11     ecut=    40.00 Ry     beta= 0.70
     CG style diagonalization
     ethr =  6.72E-10,  avg # of iterations =  4.1

     negative rho (up, down):  7.677E-03 0.000E+00

     total cpu time spent up to now is      570.2 secs

     End of self-consistent calculation

          k = 0.0000 0.0000 0.0000 ( 77079 PWs)   bands (ev):

   -21.7005 -21.3141 -21.3141 -21.3140 -21.3131 -21.3131 -21.3131 -20.5746
   -20.5745 -20.5745 -20.5745 -20.5745 -20.5745 -20.2325 -20.2320 -20.2319
   -20.2310 -20.2310 -20.2305 -19.3072 -19.3072 -19.3072 -19.3072 -19.3072
   -19.3072 -19.3066 -19.3066 -19.3065 -19.3065 -19.3065 -19.3065 -18.9110
   -18.9110 -18.9110 -18.9110 -18.9109 -18.9109 -18.4556 -18.4556 -18.4554
   -18.4554 -18.4542 -18.4542 -18.2912 -18.2912 -18.2912 -18.2912 -18.2912
   -18.2911 -12.6988 -12.6988 -12.6981 -12.6981 -12.6977 -12.6977 -12.4953
   -12.4953 -12.4953 -12.4953 -12.4953 -12.4953 -12.0075 -12.0075 -12.0075
   -12.0075 -12.0074 -12.0074 -11.3101 -11.3101 -11.3101 -11.3101 -11.3101
   -11.3101 -11.3095 -11.3095 -11.3095 -11.3095 -11.3095 -11.3094 -10.6481
   -10.6481 -10.6481 -10.6481 -10.6481 -10.6481  -9.9386  -9.9383  -9.9383
    -9.9377  -9.9377  -9.9374  -9.2818  -9.2357  -9.2357  -9.2353  -9.2353
    -9.2349  -9.2349  -8.8125  -8.8125  -8.8125  -8.8125  -8.8125  -8.8124
    -8.7681  -8.7681  -8.7680  -8.7680  -8.7680  -8.7680  -8.7669  -8.7669
    -8.7669  -8.7669  -8.7669  -8.7668  -8.7609  -8.7609  -8.7609  -8.7601
    -8.7601  -8.7601  -8.0939  -8.0938  -8.0938  -8.0938  -8.0938  -8.0938
    -7.7565  -7.7565  -7.7565  -7.7564  -7.7564  -7.7564  -7.4158  -7.4158
    -7.4158  -7.4158  -7.4158  -7.4158  -7.3100  -7.3098  -7.3098  -7.3095
    -7.3095  -7.3093  -7.2848  -7.2844  -7.2844  -7.2836  -7.2836  -7.2832
    -6.9168  -6.9168  -6.9167  -6.9163  -6.9163  -6.9162  -6.0943  -6.0943
    -6.0942  -6.0932  -6.0932  -6.0932  -5.9843  -5.9843  -5.9843  -5.9843
    -5.9842  -5.9842  -5.9838  -5.9838  -5.9838  -5.9838  -5.9837  -5.9837
    -5.4106  -5.4105  -5.3910  -5.3910  -5.3910  -5.3909  -5.3909  -5.3909
    -4.6936  -4.6936  -4.6934  -4.6934  -4.6926  -4.6926  -4.4488  -4.4488
    -4.4488  -4.4488  -4.4488  -4.4487

     highest occupied level (ev):    -4.4487

!    total energy              =   -1953.56485388 Ry
     Harris-Foulkes estimate   =   -1953.56485409 Ry
     estimated scf accuracy    <       0.00000029 Ry

     total all-electron energy =     -7810.933983 Ry

     The total energy is the sum of the following terms:

     one-electron contribution =  -10743.17946574 Ry
     hartree contribution      =    5458.34249831 Ry
     xc contribution           =    -431.71172586 Ry
     ewald contribution        =    4409.08454823 Ry
     DFT-D3 Dispersion         =      -0.27035903 Ry
     one-center paw contrib.   =    -645.83034980 Ry

     convergence has been achieved in  11 iterations

     negative rho (up, down):  7.677E-03 0.000E+00

     Forces acting on atoms (cartesian axes, Ry/au):

     atom    1 type  1   force =     0.00000000   -0.00002737    0.00000000
     atom    2 type  1   force =     0.00000765   -0.00000701   -0.00000000
     atom    3 type  1   force =    -0.00001200    0.00002938    0.00000000
     atom    4 type  1   force =    -0.00000531   -0.00000307    0.00000000
     atom    5 type  1   force =     0.00001944   -0.00002509    0.00000000
     atom    6 type  1   force =    -0.00000225    0.00001013    0.00000000
     atom    7 type  1   force =    -0.00002370    0.00001368    0.00000000
     atom    8 type  1   force =    -0.00003261   -0.00001883    0.00000000
     atom    9 type  1   force =    -0.00000765   -0.00000701    0.00000000
     atom   10 type  1   force =    -0.00000000    0.00001113   -0.00000000
     atom   11 type  1   force =    -0.00002242   -0.00000205    0.00000000
     atom   12 type  1   force =    -0.00001298   -0.00001839    0.00000000
     atom   13 type  1   force =     0.00000964   -0.00000556   -0.00000000
     atom   14 type  1   force =    -0.00000990   -0.00000312    0.00000000
     atom   15 type  1   force =     0.00001066   -0.00001686    0.00000000
     atom   16 type  1   force =    -0.00000927    0.00001766    0.00000000
     atom   17 type  1   force =     0.00001200    0.00002938    0.00000000
     atom   18 type  1   force =     0.00002242   -0.00000205    0.00000000
     atom   19 type  1   force =     0.00000000    0.00000000    0.00000000
     atom   20 type  1   force =     0.00000944    0.00002044    0.00000000
     atom   21 type  1   force =     0.00003144   -0.00000429   -0.00000000
     atom   22 type  1   force =     0.00002510   -0.00003319    0.00000000
     atom   23 type  1   force =     0.00000431    0.00000249    0.00000000
     atom   24 type  1   force =    -0.00001619    0.00003834    0.00000000
     atom   25 type  1   force =     0.00000531   -0.00000307    0.00000000
     atom   26 type  1   force =     0.00001298   -0.00001839    0.00000000
     atom   27 type  1   force =    -0.00000944    0.00002044    0.00000000
     atom   28 type  1   force =     0.00000000    0.00000614   -0.00000000
     atom   29 type  1   force =    -0.00002510   -0.00003319    0.00000000
     atom   30 type  1   force =    -0.00000000   -0.00002180    0.00000000
     atom   31 type  1   force =    -0.00001888    0.00001090    0.00000000
     atom   32 type  1   force =    -0.00004129   -0.00000515   -0.00000000
     atom   33 type  1   force =    -0.00001944   -0.00002509   -0.00000000
     atom   34 type  1   force =    -0.00000964   -0.00000556    0.00000000
     atom   35 type  1   force =    -0.00003144   -0.00000429    0.00000000
     atom   36 type  1   force =    -0.00001066   -0.00001686    0.00000000
     atom   37 type  1   force =    -0.00000431    0.00000249    0.00000000
     atom   38 type  1   force =     0.00001888    0.00001090    0.00000000
     atom   39 type  1   force =    -0.00000000   -0.00000497    0.00000000
     atom   40 type  1   force =    -0.00001993   -0.00000080    0.00000000
     atom   41 type  1   force =     0.00000225    0.00001013    0.00000000
     atom   42 type  1   force =     0.00000990   -0.00000312    0.00000000
     atom   43 type  1   force =     0.00003261   -0.00001883    0.00000000
     atom   44 type  1   force =     0.00000927    0.00001766    0.00000000
     atom   45 type  1   force =     0.00001619    0.00003834   -0.00000000
     atom   46 type  1   force =     0.00004129   -0.00000515   -0.00000000
     atom   47 type  1   force =     0.00001993   -0.00000080   -0.00000000
     atom   48 type  1   force =     0.00000000    0.00003766    0.00000000
     atom   49 type  1   force =     0.00002370    0.00001368    0.00000000
     atom   50 type  2   force =     0.00002741    0.00001583    0.00000000
     atom   51 type  2   force =    -0.00000000    0.00003369   -0.00000000
     atom   52 type  2   force =     0.00001199   -0.00000818   -0.00000000
     atom   53 type  2   force =     0.00002526   -0.00001513    0.00000000
     atom   54 type  2   force =    -0.00000047    0.00002944   -0.00000000
     atom   55 type  2   force =    -0.00000109    0.00001447    0.00000000
     atom   56 type  2   force =     0.00002917   -0.00001684    0.00000000
     atom   57 type  2   force =     0.00001434    0.00000436    0.00000000
     atom   58 type  2   force =     0.00001094    0.00001024   -0.00000000
     atom   59 type  2   force =    -0.00001199   -0.00000818   -0.00000000
     atom   60 type  2   force =     0.00000000   -0.00001557   -0.00000000
     atom   61 type  2   force =     0.00001096    0.00000633   -0.00000000
     atom   62 type  2   force =    -0.00001349    0.00000779   -0.00000000
     atom   63 type  2   force =    -0.00001307   -0.00000630    0.00000000
     atom   64 type  2   force =    -0.00002692    0.00001302    0.00000000
     atom   65 type  2   force =     0.00000243    0.00000140    0.00000000
     atom   66 type  2   force =    -0.00000218   -0.00002982    0.00000000
     atom   67 type  2   force =    -0.00002526   -0.00001513    0.00000000
     atom   68 type  2   force =    -0.00001096    0.00000633    0.00000000
     atom   69 type  2   force =     0.00000000   -0.00001266   -0.00000000
     atom   70 type  2   force =    -0.00002573   -0.00001431   -0.00000000
     atom   71 type  2   force =    -0.00000000    0.00002741    0.00000000
     atom   72 type  2   force =    -0.00000276    0.00003329    0.00000000
     atom   73 type  2   force =     0.00002745   -0.00001904    0.00000000
     atom   74 type  2   force =     0.00002374   -0.00001371    0.00000000
     atom   75 type  2   force =     0.00000047    0.00002944   -0.00000000
     atom   76 type  2   force =     0.00001349    0.00000779    0.00000000
     atom   77 type  2   force =     0.00002573   -0.00001431    0.00000000
     atom   78 type  2   force =     0.00002692    0.00001302    0.00000000
     atom   79 type  2   force =     0.00000276    0.00003329    0.00000000
     atom   80 type  2   force =     0.00000000    0.00000000    0.00000000
     atom   81 type  2   force =     0.00003021   -0.00001425    0.00000000
     atom   82 type  2   force =     0.00002474    0.00001680    0.00000000
     atom   83 type  2   force =     0.00000109    0.00001447    0.00000000
     atom   84 type  2   force =     0.00001307   -0.00000630   -0.00000000
     atom   85 type  2   force =    -0.00001434    0.00000436    0.00000000
     atom   86 type  2   force =    -0.00000243    0.00000140    0.00000000
     atom   87 type  2   force =    -0.00002745   -0.00001904   -0.00000000
     atom   88 type  2   force =    -0.00003021   -0.00001425    0.00000000
     atom   89 type  2   force =    -0.00000000   -0.00000280    0.00000000
     atom   90 type  2   force =    -0.00000340   -0.00001460    0.00000000
     atom   91 type  2   force =    -0.00002917   -0.00001684    0.00000000
     atom   92 type  2   force =    -0.00002741    0.00001583    0.00000000
     atom   93 type  2   force =    -0.00001094    0.00001024    0.00000000
     atom   94 type  2   force =     0.00000218   -0.00002982    0.00000000
     atom   95 type  2   force =    -0.00002374   -0.00001371   -0.00000000
     atom   96 type  2   force =    -0.00002474    0.00001680    0.00000000
     atom   97 type  2   force =     0.00000340   -0.00001460    0.00000000
     atom   98 type  2   force =    -0.00000000   -0.00003165    0.00000000

     Total force =     0.000247     Total SCF correction =     0.000144
     SCF correction compared to forces is large: reduce conv_thr to get better values


     Computing stress (Cartesian axis) and pressure


     negative rho (up, down):  7.677E-03 0.000E+00
          total   stress  (Ry/bohr**3)                   (kbar)     P=   -0.97
  -0.00000018   0.00000000   0.00000000         -0.03      0.00      0.00
   0.00000000  -0.00000018   0.00000000          0.00     -0.03      0.00
   0.00000000   0.00000000  -0.00001943          0.00      0.00     -2.86


     BFGS Geometry Optimization

     number of scf cycles    =   1
     number of bfgs steps    =   0

     enthalpy new            =   -1953.5648538831 Ry

     new trust radius        =       0.0001710862 bohr
     new conv_thr            =       0.0000010000 Ry

     new unit-cell volume =  36104.66056 a.u.^3 (  5350.15864 Ang^3 )
     density =      0.36500 g/cm^3

CELL_PARAMETERS (alat= 33.23461096)
   0.999335470   0.000000000   0.000000000
  -0.499667735   0.865449904   0.000000000
   0.000000000   0.000000000   1.137203616

ATOMIC_POSITIONS (crystal)
B        0.047623166   0.095246333   0.500000000
B        0.047618843   0.238098523   0.500000000
B        0.047620963   0.380945649   0.500000000
B        0.047624113   0.523812557   0.500000000
B        0.047620963   0.666675315   0.500000000
B        0.047618843   0.809520321   0.500000000
B        0.047623166   0.952376834   0.500000000
B        0.190486661   0.095243331   0.500000000
B        0.190479679   0.238098523   0.500000000
B        0.190475764   0.380951530   0.500000000
B        0.190484358   0.523812895   0.500000000
B        0.190484358   0.666672465   0.500000000
B        0.190475764   0.809524236   0.500000000
B        0.190479679   0.952381157   0.500000000
B        0.333331484   0.095241672   0.500000000
B        0.333331484   0.238089812   0.500000000
B        0.333324685   0.380945649   0.500000000
B        0.333327535   0.523812895   0.500000000
B        0.333333000   0.666667000   0.500000000
B        0.333327535   0.809515642   0.500000000
B        0.333324685   0.952379037   0.500000000
B        0.476187633   0.095245260   0.500000000
B        0.476187295   0.238093647   0.500000000
B        0.476187633   0.380942373   0.500000000
B        0.476187443   0.523812557   0.500000000
B        0.476187105   0.666672465   0.500000000
B        0.476187105   0.809515642   0.500000000
B        0.476187443   0.952375887   0.500000000
B        0.619057627   0.095245260   0.500000000
B        0.619050625   0.238100250   0.500000000
B        0.619050625   0.380949375   0.500000000
B        0.619057627   0.523812367   0.500000000
B        0.619054351   0.666675315   0.500000000
B        0.619048470   0.809524236   0.500000000
B        0.619054351   0.952379037   0.500000000
B        0.761910188   0.095241672   0.500000000
B        0.761906353   0.238093647   0.500000000
B        0.761899750   0.380949375   0.500000000
B        0.761906353   0.523812705   0.500000000
B        0.761910188   0.666668516   0.500000000
B        0.761901477   0.809520321   0.500000000
B        0.761901477   0.952381157   0.500000000
B        0.904756669   0.095243331   0.500000000
B        0.904758328   0.238089812   0.500000000
B        0.904754740   0.380942373   0.500000000
B        0.904754740   0.523812367   0.500000000
B        0.904758328   0.666668516   0.500000000
B        0.904756669   0.809513339   0.500000000
B        0.904753667   0.952376834   0.500000000
N        0.095243848   0.047621923   0.500000000
N        0.095241631   0.190483260   0.500000000
N        0.095240344   0.333332066   0.500000000
N        0.095242942   0.476188563   0.500000000
N        0.095242942   0.619054379   0.500000000
N        0.095240344   0.761908278   0.500000000
N        0.095241631   0.904758369   0.500000000
N        0.238097664   0.047619294   0.500000000
N        0.238097664   0.190478370   0.500000000
N        0.238091722   0.333332066   0.500000000
N        0.238094294   0.476188589   0.500000000
N        0.238098691   0.619049845   0.500000000
N        0.238094294   0.761905706   0.500000000
N        0.238091722   0.904759656   0.500000000
N        0.380947805   0.047620469   0.500000000
N        0.380951655   0.190475828   0.500000000
N        0.380947805   0.333327336   0.500000000
N        0.380945621   0.476188563   0.500000000
N        0.380950155   0.619049845   0.500000000
N        0.380950155   0.761901309   0.500000000
N        0.380945621   0.904757058   0.500000000
N        0.523811696   0.047622392   0.500000000
N        0.523811688   0.190481578   0.500000000
N        0.523811688   0.333329109   0.500000000
N        0.523811696   0.476188304   0.500000000
N        0.523811437   0.619054379   0.500000000
N        0.523811411   0.761905706   0.500000000
N        0.523811437   0.904757058   0.500000000
N        0.666672664   0.047620469   0.500000000
N        0.666670891   0.190481578   0.500000000
N        0.666667000   0.333333000   0.500000000
N        0.666670891   0.476188312   0.500000000
N        0.666672664   0.619052195   0.500000000
N        0.666667934   0.761908278   0.500000000
N        0.666667934   0.904759656   0.500000000
N        0.809521630   0.047619294   0.500000000
N        0.809524172   0.190475828   0.500000000
N        0.809518422   0.333329109   0.500000000
N        0.809518422   0.476188312   0.500000000
N        0.809524172   0.619048345   0.500000000
N        0.809521630   0.761902336   0.500000000
N        0.809516740   0.904758369   0.500000000
N        0.952378077   0.047621923   0.500000000
N        0.952380706   0.190478370   0.500000000
N        0.952379531   0.333327336   0.500000000
N        0.952377608   0.476188304   0.500000000
N        0.952379531   0.619052195   0.500000000
N        0.952380706   0.761902336   0.500000000
N        0.952378077   0.904756152   0.500000000



     Writing output data file hBN.save/
     Message from routine punch:
     wavefunctions written to file
     NEW-OLD atomic charge density approx. for the potential

     negative rho (up, down):  7.677E-03 0.000E+00
     extrapolated charge  391.99647, renormalised to  392.00000

     total cpu time spent up to now is      688.9 secs

     Self-consistent Calculation

     iteration #  1     ecut=    40.00 Ry     beta= 0.70
     CG style diagonalization
     ethr =  1.00E-06,  avg # of iterations =  2.0

     Threshold (ethr) on eigenvalues was too large:
     Diagonalizing with lowered threshold

     CG style diagonalization
     c_bands:  2 eigenvalues not converged
     ethr =  2.00E-10,  avg # of iterations =  4.8

     negative rho (up, down):  7.679E-03 0.000E+00

     total cpu time spent up to now is      791.8 secs

     total energy              =   -1953.56485286 Ry
     Harris-Foulkes estimate   =   -1953.65866162 Ry
     estimated scf accuracy    <       0.00000165 Ry

     iteration #  2     ecut=    40.00 Ry     beta= 0.70
     CG style diagonalization
     ethr =  4.21E-10,  avg # of iterations =  4.5

     negative rho (up, down):  7.678E-03 0.000E+00

     total cpu time spent up to now is      849.4 secs

     total energy              =   -1953.56485376 Ry
     Harris-Foulkes estimate   =   -1953.56485470 Ry
     estimated scf accuracy    <       0.00000213 Ry

     iteration #  3     ecut=    40.00 Ry     beta= 0.70
     CG style diagonalization
     ethr =  4.21E-10,  avg # of iterations =  3.9

     negative rho (up, down):  7.677E-03 0.000E+00

     total cpu time spent up to now is      898.4 secs

     End of self-consistent calculation

          k = 0.0000 0.0000 0.0000 ( 77079 PWs)   bands (ev):

   -21.7006 -21.3141 -21.3140 -21.3140 -21.3132 -21.3132 -21.3132 -20.5746
   -20.5746 -20.5746 -20.5746 -20.5746 -20.5746 -20.2324 -20.2320 -20.2319
   -20.2311 -20.2311 -20.2306 -19.3072 -19.3072 -19.3071 -19.3071 -19.3071
   -19.3071 -19.3067 -19.3067 -19.3066 -19.3066 -19.3066 -19.3066 -18.9110
   -18.9110 -18.9110 -18.9110 -18.9110 -18.9109 -18.4555 -18.4555 -18.4554
   -18.4554 -18.4544 -18.4544 -18.2913 -18.2913 -18.2912 -18.2912 -18.2912
   -18.2912 -12.6987 -12.6987 -12.6981 -12.6981 -12.6978 -12.6978 -12.4953
   -12.4953 -12.4953 -12.4953 -12.4953 -12.4953 -12.0075 -12.0075 -12.0074
   -12.0074 -12.0074 -12.0074 -11.3100 -11.3100 -11.3100 -11.3100 -11.3100
   -11.3100 -11.3095 -11.3095 -11.3095 -11.3095 -11.3095 -11.3095 -10.6481
   -10.6481 -10.6480 -10.6480 -10.6480 -10.6480  -9.9384  -9.9382  -9.9382
    -9.9378  -9.9377  -9.9375  -9.2819  -9.2356  -9.2356  -9.2353  -9.2353
    -9.2349  -9.2349  -8.8124  -8.8124  -8.8124  -8.8124  -8.8124  -8.8124
    -8.7680  -8.7680  -8.7679  -8.7679  -8.7679  -8.7679  -8.7669  -8.7669
    -8.7669  -8.7669  -8.7669  -8.7669  -8.7609  -8.7609  -8.7609  -8.7601
    -8.7601  -8.7601  -8.0938  -8.0938  -8.0938  -8.0938  -8.0937  -8.0937
    -7.7565  -7.7565  -7.7565  -7.7565  -7.7565  -7.7565  -7.4158  -7.4158
    -7.4158  -7.4158  -7.4157  -7.4157  -7.3098  -7.3097  -7.3097  -7.3095
    -7.3095  -7.3094  -7.2848  -7.2844  -7.2844  -7.2837  -7.2837  -7.2833
    -6.9166  -6.9166  -6.9166  -6.9163  -6.9163  -6.9163  -6.0941  -6.0941
    -6.0941  -6.0933  -6.0932  -6.0932  -5.9842  -5.9842  -5.9842  -5.9842
    -5.9842  -5.9842  -5.9839  -5.9839  -5.9838  -5.9838  -5.9838  -5.9838
    -5.4105  -5.4105  -5.3910  -5.3910  -5.3910  -5.3910  -5.3909  -5.3909
    -4.6936  -4.6936  -4.6934  -4.6934  -4.6927  -4.6927  -4.4488  -4.4488
    -4.4488  -4.4488  -4.4488  -4.4488

     highest occupied level (ev):    -4.4488

!    total energy              =   -1953.56485397 Ry
     Harris-Foulkes estimate   =   -1953.56485404 Ry
     estimated scf accuracy    <       0.00000008 Ry

     total all-electron energy =     -7810.933983 Ry

     The total energy is the sum of the following terms:

     one-electron contribution =  -10743.28064004 Ry
     hartree contribution      =    5458.39713892 Ry
     xc contribution           =    -431.71366186 Ry
     ewald contribution        =    4409.13305897 Ry
     DFT-D3 Dispersion         =      -0.27036083 Ry
     one-center paw contrib.   =    -645.83038913 Ry

     convergence has been achieved in   3 iterations

     negative rho (up, down):  7.677E-03 0.000E+00

     Forces acting on atoms (cartesian axes, Ry/au):

     atom    1 type  1   force =    -0.00000000    0.00002980   -0.00000000
     atom    2 type  1   force =    -0.00000662    0.00000957    0.00000000
     atom    3 type  1   force =     0.00001265   -0.00002922   -0.00000000
     atom    4 type  1   force =     0.00000453    0.00000262    0.00000000
     atom    5 type  1   force =    -0.00001898    0.00002556   -0.00000000
     atom    6 type  1   force =     0.00000498   -0.00001052   -0.00000000
     atom    7 type  1   force =     0.00002581   -0.00001490    0.00000000
     atom    8 type  1   force =     0.00003291    0.00001900   -0.00000000
     atom    9 type  1   force =     0.00000662    0.00000957   -0.00000000
     atom   10 type  1   force =     0.00000000   -0.00001111   -0.00000000
     atom   11 type  1   force =     0.00002231   -0.00000012    0.00000000
     atom   12 type  1   force =     0.00001105    0.00001938    0.00000000
     atom   13 type  1   force =    -0.00000962    0.00000556   -0.00000000
     atom   14 type  1   force =     0.00001160    0.00000095    0.00000000
     atom   15 type  1   force =    -0.00000840    0.00001631   -0.00000000
     atom   16 type  1   force =     0.00000992   -0.00001543    0.00000000
     atom   17 type  1   force =    -0.00001265   -0.00002922    0.00000000
     atom   18 type  1   force =    -0.00002231   -0.00000012   -0.00000000
     atom   19 type  1   force =    -0.00000000    0.00000000    0.00000000
     atom   20 type  1   force =    -0.00001126   -0.00001926    0.00000000
     atom   21 type  1   force =    -0.00003163    0.00000366    0.00000000
     atom   22 type  1   force =    -0.00002416    0.00003568    0.00000000
     atom   23 type  1   force =    -0.00000127   -0.00000073    0.00000000
     atom   24 type  1   force =     0.00001882   -0.00003876    0.00000000
     atom   25 type  1   force =    -0.00000453    0.00000262    0.00000000
     atom   26 type  1   force =    -0.00001105    0.00001938    0.00000000
     atom   27 type  1   force =     0.00001126   -0.00001926   -0.00000000
     atom   28 type  1   force =     0.00000000   -0.00000523    0.00000000
     atom   29 type  1   force =     0.00002416    0.00003568   -0.00000000
     atom   30 type  1   force =    -0.00000000    0.00002474    0.00000000
     atom   31 type  1   force =     0.00002142   -0.00001237    0.00000000
     atom   32 type  1   force =     0.00004297    0.00000308    0.00000000
     atom   33 type  1   force =     0.00001898    0.00002556    0.00000000
     atom   34 type  1   force =     0.00000962    0.00000556    0.00000000
     atom   35 type  1   force =     0.00003163    0.00000366    0.00000000
     atom   36 type  1   force =     0.00000840    0.00001631   -0.00000000
     atom   37 type  1   force =     0.00000127   -0.00000073   -0.00000000
     atom   38 type  1   force =    -0.00002142   -0.00001237    0.00000000
     atom   39 type  1   force =    -0.00000000    0.00000147    0.00000000
     atom   40 type  1   force =     0.00001832   -0.00000088    0.00000000
     atom   41 type  1   force =    -0.00000498   -0.00001052   -0.00000000
     atom   42 type  1   force =    -0.00001160    0.00000095    0.00000000
     atom   43 type  1   force =    -0.00003291    0.00001900   -0.00000000
     atom   44 type  1   force =    -0.00000992   -0.00001543   -0.00000000
     atom   45 type  1   force =    -0.00001882   -0.00003876   -0.00000000
     atom   46 type  1   force =    -0.00004297    0.00000308    0.00000000
     atom   47 type  1   force =    -0.00001832   -0.00000088    0.00000000
     atom   48 type  1   force =     0.00000000   -0.00003800    0.00000000
     atom   49 type  1   force =    -0.00002581   -0.00001490    0.00000000
     atom   50 type  2   force =    -0.00002451   -0.00001415    0.00000000
     atom   51 type  2   force =     0.00000000   -0.00003072    0.00000000
     atom   52 type  2   force =    -0.00001089    0.00000701   -0.00000000
     atom   53 type  2   force =    -0.00002153    0.00001609    0.00000000
     atom   54 type  2   force =     0.00000317   -0.00002669    0.00000000
     atom   55 type  2   force =     0.00000063   -0.00001294   -0.00000000
     atom   56 type  2   force =    -0.00002660    0.00001536    0.00000000
     atom   57 type  2   force =    -0.00001255   -0.00000254    0.00000000
     atom   58 type  2   force =    -0.00000848   -0.00000960    0.00000000
     atom   59 type  2   force =     0.00001089    0.00000701    0.00000000
     atom   60 type  2   force =    -0.00000000    0.00001736    0.00000000
     atom   61 type  2   force =    -0.00000715   -0.00000413    0.00000000
     atom   62 type  2   force =     0.00001504   -0.00000868   -0.00000000
     atom   63 type  2   force =     0.00001152    0.00000593    0.00000000
     atom   64 type  2   force =     0.00002203   -0.00001149    0.00000000
     atom   65 type  2   force =    -0.00000408   -0.00000236    0.00000000
     atom   66 type  2   force =     0.00000106    0.00002483    0.00000000
     atom   67 type  2   force =     0.00002153    0.00001609    0.00000000
     atom   68 type  2   force =     0.00000715   -0.00000413   -0.00000000
     atom   69 type  2   force =    -0.00000000    0.00000825    0.00000000
     atom   70 type  2   force =     0.00002470    0.00001060    0.00000000
     atom   71 type  2   force =     0.00000000   -0.00002717    0.00000000
     atom   72 type  2   force =     0.00000006   -0.00003287   -0.00000000
     atom   73 type  2   force =    -0.00002843    0.00001649   -0.00000000
     atom   74 type  2   force =    -0.00002353    0.00001359   -0.00000000
     atom   75 type  2   force =    -0.00000317   -0.00002669    0.00000000
     atom   76 type  2   force =    -0.00001504   -0.00000868    0.00000000
     atom   77 type  2   force =    -0.00002470    0.00001060    0.00000000
     atom   78 type  2   force =    -0.00002203   -0.00001149    0.00000000
     atom   79 type  2   force =    -0.00000006   -0.00003287    0.00000000
     atom   80 type  2   force =    -0.00000000    0.00000000    0.00000000
     atom   81 type  2   force =    -0.00002850    0.00001638    0.00000000
     atom   82 type  2   force =    -0.00002097   -0.00001333   -0.00000000
     atom   83 type  2   force =    -0.00000063   -0.00001294    0.00000000
     atom   84 type  2   force =    -0.00001152    0.00000593    0.00000000
     atom   85 type  2   force =     0.00001255   -0.00000254    0.00000000
     atom   86 type  2   force =     0.00000408   -0.00000236    0.00000000
     atom   87 type  2   force =     0.00002843    0.00001649    0.00000000
     atom   88 type  2   force =     0.00002850    0.00001638    0.00000000
     atom   89 type  2   force =    -0.00000000    0.00000472    0.00000000
     atom   90 type  2   force =     0.00000408    0.00001214    0.00000000
     atom   91 type  2   force =     0.00002660    0.00001536    0.00000000
     atom   92 type  2   force =     0.00002451   -0.00001415    0.00000000
     atom   93 type  2   force =     0.00000848   -0.00000960    0.00000000
     atom   94 type  2   force =    -0.00000106    0.00002483   -0.00000000
     atom   95 type  2   force =     0.00002353    0.00001359    0.00000000
     atom   96 type  2   force =     0.00002097   -0.00001333    0.00000000
     atom   97 type  2   force =    -0.00000408    0.00001214    0.00000000
     atom   98 type  2   force =    -0.00000000    0.00002830    0.00000000

     Total force =     0.000240     Total SCF correction =     0.000054
     SCF correction compared to forces is large: reduce conv_thr to get better values


     Computing stress (Cartesian axis) and pressure


     negative rho (up, down):  7.677E-03 0.000E+00
          total   stress  (Ry/bohr**3)                   (kbar)     P=   -0.95
  -0.00000006   0.00000000  -0.00000000         -0.01      0.00     -0.00
   0.00000000  -0.00000006   0.00000000          0.00     -0.01      0.00
   0.00000000   0.00000000  -0.00001931          0.00      0.00     -2.84


     number of scf cycles    =   2
     number of bfgs steps    =   1

     enthalpy old            =   -1953.5648538831 Ry
     enthalpy new            =   -1953.5648539736 Ry

     CASE: enthalpy_new < enthalpy_old

     small trust_radius: resetting bfgs history

     new trust radius        =       0.0000567802 bohr
     new conv_thr            =       0.0000000100 Ry

     new unit-cell volume =  36104.55267 a.u.^3 (  5350.14265 Ang^3 )
     density =      0.36500 g/cm^3

CELL_PARAMETERS (alat= 33.23461096)
   0.999333977   0.000000000   0.000000000
  -0.499666988   0.865448611   0.000000000
   0.000000000   0.000000000   1.137203616

ATOMIC_POSITIONS (crystal)
B        0.047623684   0.095247369   0.500000000
B        0.047618810   0.238098856   0.500000000
B        0.047620836   0.380944633   0.500000000
B        0.047624295   0.523812648   0.500000000
B        0.047620836   0.666676204   0.500000000
B        0.047618810   0.809519955   0.500000000
B        0.047623684   0.952376316   0.500000000
B        0.190487982   0.095243992   0.500000000
B        0.190480045   0.238098856   0.500000000
B        0.190475571   0.380951144   0.500000000
B        0.190485028   0.523812891   0.500000000
B        0.190485028   0.666673139   0.500000000
B        0.190475571   0.809524429   0.500000000
B        0.190480045   0.952381190   0.500000000
B        0.333331514   0.095242239   0.500000000
B        0.333331514   0.238089276   0.500000000
B        0.333323796   0.380944633   0.500000000
B        0.333326861   0.523812891   0.500000000
B        0.333333000   0.666667000   0.500000000
B        0.333326861   0.809514972   0.500000000
B        0.333323796   0.952379164   0.500000000
B        0.476187526   0.095246500   0.500000000
B        0.476187244   0.238093622   0.500000000
B        0.476187526   0.380941025   0.500000000
B        0.476187352   0.523812648   0.500000000
B        0.476187109   0.666673139   0.500000000
B        0.476187109   0.809514972   0.500000000
B        0.476187352   0.952375705   0.500000000
B        0.619058975   0.095246500   0.500000000
B        0.619051055   0.238101110   0.500000000
B        0.619051055   0.380948945   0.500000000
B        0.619058975   0.523812474   0.500000000
B        0.619055367   0.666676204   0.500000000
B        0.619048856   0.809524429   0.500000000
B        0.619055367   0.952379164   0.500000000
B        0.761910724   0.095242239   0.500000000
B        0.761906378   0.238093622   0.500000000
B        0.761898890   0.380948945   0.500000000
B        0.761906378   0.523812756   0.500000000
B        0.761910724   0.666668486   0.500000000
B        0.761901144   0.809519955   0.500000000
B        0.761901144   0.952381190   0.500000000
B        0.904756008   0.095243992   0.500000000
B        0.904757761   0.238089276   0.500000000
B        0.904753500   0.380941025   0.500000000
B        0.904753500   0.523812474   0.500000000
B        0.904757761   0.666668486   0.500000000
B        0.904756008   0.809512018   0.500000000
B        0.904752631   0.952376316   0.500000000
N        0.095242864   0.047621431   0.500000000
N        0.095241097   0.190482192   0.500000000
N        0.095240138   0.333332310   0.500000000
N        0.095242573   0.476189122   0.500000000
N        0.095242573   0.619053451   0.500000000
N        0.095240138   0.761907828   0.500000000
N        0.095241097   0.904758903   0.500000000
N        0.238097242   0.047619206   0.500000000
N        0.238097242   0.190478036   0.500000000
N        0.238092172   0.333332310   0.500000000
N        0.238094596   0.476189192   0.500000000
N        0.238098404   0.619049702   0.500000000
N        0.238094596   0.761905404   0.500000000
N        0.238092172   0.904759862   0.500000000
N        0.380948268   0.047620069   0.500000000
N        0.380951491   0.190475746   0.500000000
N        0.380948268   0.333328199   0.500000000
N        0.380946549   0.476189122   0.500000000
N        0.380950298   0.619049702   0.500000000
N        0.380950298   0.761901596   0.500000000
N        0.380946549   0.904757427   0.500000000
N        0.523811223   0.047621447   0.500000000
N        0.523811118   0.190480436   0.500000000
N        0.523811118   0.333329682   0.500000000
N        0.523811223   0.476188777   0.500000000
N        0.523810878   0.619053451   0.500000000
N        0.523810808   0.761905404   0.500000000
N        0.523810878   0.904757427   0.500000000
N        0.666671801   0.047620069   0.500000000
N        0.666670318   0.190480436   0.500000000
N        0.666667000   0.333333000   0.500000000
N        0.666670318   0.476188882   0.500000000
N        0.666671801   0.619051732   0.500000000
N        0.666667690   0.761907828   0.500000000
N        0.666667690   0.904759862   0.500000000
N        0.809521964   0.047619206   0.500000000
N        0.809524254   0.190475746   0.500000000
N        0.809519564   0.333329682   0.500000000
N        0.809519564   0.476188882   0.500000000
N        0.809524254   0.619048509   0.500000000
N        0.809521964   0.761902758   0.500000000
N        0.809517808   0.904758903   0.500000000
N        0.952378569   0.047621431   0.500000000
N        0.952380794   0.190478036   0.500000000
N        0.952379931   0.333328199   0.500000000
N        0.952378553   0.476188777   0.500000000
N        0.952379931   0.619051732   0.500000000
N        0.952380794   0.761902758   0.500000000
N        0.952378569   0.904757136   0.500000000



     Writing output data file hBN.save/
     Message from routine punch:
     wavefunctions written to file
     NEW-OLD atomic charge density approx. for the potential

     negative rho (up, down):  7.677E-03 0.000E+00
     extrapolated charge  391.99883, renormalised to  392.00000

     total cpu time spent up to now is     1016.0 secs

     Self-consistent Calculation

     iteration #  1     ecut=    40.00 Ry     beta= 0.70
     CG style diagonalization
     ethr =  1.00E-06,  avg # of iterations =  2.0

     Threshold (ethr) on eigenvalues was too large:
     Diagonalizing with lowered threshold

     CG style diagonalization
     ethr =  4.23E-11,  avg # of iterations = 10.3

     negative rho (up, down):  7.678E-03 0.000E+00

     total cpu time spent up to now is     1178.1 secs

     total energy              =   -1953.56485379 Ry
     Harris-Foulkes estimate   =   -1953.59598712 Ry
     estimated scf accuracy    <       0.00000042 Ry

     iteration #  2     ecut=    40.00 Ry     beta= 0.70
     CG style diagonalization
     ethr =  1.07E-10,  avg # of iterations =  4.3

     negative rho (up, down):  7.678E-03 0.000E+00

     total cpu time spent up to now is     1233.6 secs

     total energy              =   -1953.56485396 Ry
     Harris-Foulkes estimate   =   -1953.56485417 Ry
     estimated scf accuracy    <       0.00000045 Ry

     iteration #  3     ecut=    40.00 Ry     beta= 0.70
     CG style diagonalization
     ethr =  1.07E-10,  avg # of iterations =  3.7

     negative rho (up, down):  7.677E-03 0.000E+00

     total cpu time spent up to now is     1280.8 secs

     total energy              =   -1953.56485402 Ry
     Harris-Foulkes estimate   =   -1953.56485402 Ry
     estimated scf accuracy    <       0.00000001 Ry

     iteration #  4     ecut=    40.00 Ry     beta= 0.70
     CG style diagonalization
     ethr =  2.72E-12,  avg # of iterations =  4.1

     negative rho (up, down):  7.678E-03 0.000E+00

     total cpu time spent up to now is     1332.3 secs

     End of self-consistent calculation

          k = 0.0000 0.0000 0.0000 ( 77079 PWs)   bands (ev):

   -21.7008 -21.3144 -21.3143 -21.3143 -21.3134 -21.3134 -21.3134 -20.5748
   -20.5748 -20.5748 -20.5748 -20.5748 -20.5748 -20.2328 -20.2323 -20.2322
   -20.2313 -20.2312 -20.2307 -19.3075 -19.3075 -19.3075 -19.3075 -19.3075
   -19.3075 -19.3068 -19.3068 -19.3068 -19.3068 -19.3068 -19.3068 -18.9113
   -18.9113 -18.9112 -18.9112 -18.9112 -18.9112 -18.4559 -18.4559 -18.4557
   -18.4557 -18.4545 -18.4545 -18.2915 -18.2915 -18.2915 -18.2915 -18.2914
   -18.2914 -12.6990 -12.6990 -12.6983 -12.6983 -12.6979 -12.6979 -12.4955
   -12.4955 -12.4955 -12.4955 -12.4955 -12.4955 -12.0077 -12.0077 -12.0077
   -12.0077 -12.0076 -12.0076 -11.3103 -11.3103 -11.3103 -11.3103 -11.3103
   -11.3103 -11.3097 -11.3097 -11.3096 -11.3096 -11.3096 -11.3096 -10.6483
   -10.6483 -10.6482 -10.6482 -10.6482 -10.6482  -9.9388  -9.9385  -9.9385
    -9.9379  -9.9379  -9.9376  -9.2820  -9.2359  -9.2359  -9.2355  -9.2355
    -9.2351  -9.2351  -8.8127  -8.8127  -8.8127  -8.8126  -8.8126  -8.8126
    -8.7683  -8.7683  -8.7683  -8.7683  -8.7682  -8.7682  -8.7671  -8.7671
    -8.7670  -8.7670  -8.7670  -8.7670  -8.7611  -8.7611  -8.7611  -8.7603
    -8.7603  -8.7603  -8.0941  -8.0940  -8.0940  -8.0940  -8.0940  -8.0940
    -7.7567  -7.7567  -7.7567  -7.7567  -7.7566  -7.7566  -7.4160  -7.4160
    -7.4160  -7.4160  -7.4160  -7.4160  -7.3102  -7.3100  -7.3100  -7.3097
    -7.3096  -7.3095  -7.2851  -7.2847  -7.2846  -7.2838  -7.2838  -7.2834
    -6.9170  -6.9170  -6.9169  -6.9165  -6.9165  -6.9164  -6.0945  -6.0945
    -6.0945  -6.0934  -6.0934  -6.0933  -5.9845  -5.9845  -5.9845  -5.9845
    -5.9845  -5.9845  -5.9840  -5.9840  -5.9840  -5.9840  -5.9839  -5.9839
    -5.4108  -5.4107  -5.3912  -5.3912  -5.3912  -5.3912  -5.3911  -5.3911
    -4.6939  -4.6939  -4.6936  -4.6936  -4.6928  -4.6928  -4.4491  -4.4491
    -4.4490  -4.4490  -4.4490  -4.4490

     highest occupied level (ev):    -4.4490

!    total energy              =   -1953.56485402 Ry
     Harris-Foulkes estimate   =   -1953.56485403 Ry
     estimated scf accuracy    <          1.5E-09 Ry

     total all-electron energy =     -7810.933983 Ry

     The total energy is the sum of the following terms:

     one-electron contribution =  -10743.31813582 Ry
     hartree contribution      =    5458.41999610 Ry
     xc contribution           =    -431.71509750 Ry
     ewald contribution        =    4409.14915935 Ry
     DFT-D3 Dispersion         =      -0.27036143 Ry
     one-center paw contrib.   =    -645.83041473 Ry

     convergence has been achieved in   4 iterations

     negative rho (up, down):  7.678E-03 0.000E+00

     Forces acting on atoms (cartesian axes, Ry/au):

     atom    1 type  1   force =     0.00000000   -0.00002653    0.00000000
     atom    2 type  1   force =     0.00000731   -0.00000896    0.00000000
     atom    3 type  1   force =    -0.00001180    0.00002843    0.00000000
     atom    4 type  1   force =    -0.00000122   -0.00000070   -0.00000000
     atom    5 type  1   force =     0.00001872   -0.00002444    0.00000000
     atom    6 type  1   force =    -0.00000410    0.00001081    0.00000000
     atom    7 type  1   force =    -0.00002297    0.00001326    0.00000000
     atom    8 type  1   force =    -0.00003010   -0.00001738    0.00000000
     atom    9 type  1   force =    -0.00000731   -0.00000896   -0.00000000
     atom   10 type  1   force =    -0.00000000    0.00001354    0.00000000
     atom   11 type  1   force =    -0.00001911    0.00000318    0.00000000
     atom   12 type  1   force =    -0.00000680   -0.00001814    0.00000000
     atom   13 type  1   force =     0.00001173   -0.00000677    0.00000000
     atom   14 type  1   force =    -0.00001142   -0.00000185    0.00000000
     atom   15 type  1   force =     0.00000810   -0.00001569    0.00000000
     atom   16 type  1   force =    -0.00000954    0.00001486    0.00000000
     atom   17 type  1   force =     0.00001180    0.00002843    0.00000000
     atom   18 type  1   force =     0.00001911    0.00000318   -0.00000000
     atom   19 type  1   force =     0.00000000   -0.00000000    0.00000000
     atom   20 type  1   force =     0.00001230    0.00001496    0.00000000
     atom   21 type  1   force =     0.00003053   -0.00000399   -0.00000000
     atom   22 type  1   force =     0.00002055   -0.00003527   -0.00000000
     atom   23 type  1   force =    -0.00000125   -0.00000072    0.00000000
     atom   24 type  1   force =    -0.00002027    0.00003543   -0.00000000
     atom   25 type  1   force =     0.00000122   -0.00000070   -0.00000000
     atom   26 type  1   force =     0.00000680   -0.00001814    0.00000000
     atom   27 type  1   force =    -0.00001230    0.00001496   -0.00000000
     atom   28 type  1   force =    -0.00000000    0.00000141    0.00000000
     atom   29 type  1   force =    -0.00002055   -0.00003527    0.00000000
     atom   30 type  1   force =     0.00000000   -0.00002561    0.00000000
     atom   31 type  1   force =    -0.00002218    0.00001281    0.00000000
     atom   32 type  1   force =    -0.00004081   -0.00000016    0.00000000
     atom   33 type  1   force =    -0.00001872   -0.00002444    0.00000000
     atom   34 type  1   force =    -0.00001173   -0.00000677    0.00000000
     atom   35 type  1   force =    -0.00003053   -0.00000399    0.00000000
     atom   36 type  1   force =    -0.00000810   -0.00001569    0.00000000
     atom   37 type  1   force =     0.00000125   -0.00000072    0.00000000
     atom   38 type  1   force =     0.00002218    0.00001281    0.00000000
     atom   39 type  1   force =    -0.00000000    0.00000145    0.00000000
     atom   40 type  1   force =    -0.00001764    0.00000083    0.00000000
     atom   41 type  1   force =     0.00000410    0.00001081    0.00000000
     atom   42 type  1   force =     0.00001142   -0.00000185    0.00000000
     atom   43 type  1   force =     0.00003010   -0.00001738    0.00000000
     atom   44 type  1   force =     0.00000954    0.00001486   -0.00000000
     atom   45 type  1   force =     0.00002027    0.00003543    0.00000000
     atom   46 type  1   force =     0.00004081   -0.00000016    0.00000000
     atom   47 type  1   force =     0.00001764    0.00000083    0.00000000
     atom   48 type  1   force =    -0.00000000    0.00003476    0.00000000
     atom   49 type  1   force =     0.00002297    0.00001326    0.00000000
     atom   50 type  2   force =     0.00002454    0.00001417   -0.00000000
     atom   51 type  2   force =    -0.00000000    0.00003428    0.00000000
     atom   52 type  2   force =     0.00001233   -0.00000928    0.00000000
     atom   53 type  2   force =     0.00002180   -0.00001832    0.00000000
     atom   54 type  2   force =    -0.00000496    0.00002804   -0.00000000
     atom   55 type  2   force =    -0.00000187    0.00001532    0.00000000
     atom   56 type  2   force =     0.00002969   -0.00001714   -0.00000000
     atom   57 type  2   force =     0.00001632    0.00000216    0.00000000
     atom   58 type  2   force =     0.00001003    0.00001305    0.00000000
     atom   59 type  2   force =    -0.00001233   -0.00000928    0.00000000
     atom   60 type  2   force =     0.00000000   -0.00002096    0.00000000
     atom   61 type  2   force =     0.00000691    0.00000399   -0.00000000
     atom   62 type  2   force =    -0.00001815    0.00001048    0.00000000
     atom   63 type  2   force =    -0.00001420   -0.00000604    0.00000000
     atom   64 type  2   force =    -0.00002360    0.00001504   -0.00000000
     atom   65 type  2   force =     0.00000656    0.00000379   -0.00000000
     atom   66 type  2   force =     0.00000122   -0.00002796   -0.00000000
     atom   67 type  2   force =    -0.00002180   -0.00001832    0.00000000
     atom   68 type  2   force =    -0.00000691    0.00000399    0.00000000
     atom   69 type  2   force =     0.00000000   -0.00000797    0.00000000
     atom   70 type  2   force =    -0.00002676   -0.00000972   -0.00000000
     atom   71 type  2   force =    -0.00000000    0.00003170    0.00000000
     atom   72 type  2   force =     0.00000118    0.00003733    0.00000000
     atom   73 type  2   force =     0.00003292   -0.00001764   -0.00000000
     atom   74 type  2   force =     0.00002745   -0.00001585    0.00000000
     atom   75 type  2   force =     0.00000496    0.00002804    0.00000000
     atom   76 type  2   force =     0.00001815    0.00001048    0.00000000
     atom   77 type  2   force =     0.00002676   -0.00000972   -0.00000000
     atom   78 type  2   force =     0.00002360    0.00001504    0.00000000
     atom   79 type  2   force =    -0.00000118    0.00003733    0.00000000
     atom   80 type  2   force =     0.00000000    0.00000000    0.00000000
     atom   81 type  2   force =     0.00003174   -0.00001969    0.00000000
     atom   82 type  2   force =     0.00002482    0.00001292   -0.00000000
     atom   83 type  2   force =     0.00000187    0.00001532    0.00000000
     atom   84 type  2   force =     0.00001420   -0.00000604    0.00000000
     atom   85 type  2   force =    -0.00001632    0.00000216    0.00000000
     atom   86 type  2   force =    -0.00000656    0.00000379    0.00000000
     atom   87 type  2   force =    -0.00003292   -0.00001764   -0.00000000
     atom   88 type  2   force =    -0.00003174   -0.00001969    0.00000000
     atom   89 type  2   force =     0.00000000   -0.00000757    0.00000000
     atom   90 type  2   force =    -0.00000629   -0.00001521    0.00000000
     atom   91 type  2   force =    -0.00002969   -0.00001714    0.00000000
     atom   92 type  2   force =    -0.00002454    0.00001417    0.00000000
     atom   93 type  2   force =    -0.00001003    0.00001305   -0.00000000
     atom   94 type  2   force =    -0.00000122   -0.00002796    0.00000000
     atom   95 type  2   force =    -0.00002745   -0.00001585    0.00000000
     atom   96 type  2   force =    -0.00002482    0.00001292   -0.00000000
     atom   97 type  2   force =     0.00000629   -0.00001521    0.00000000
     atom   98 type  2   force =     0.00000000   -0.00002834   -0.00000000

     Total force =     0.000246     Total SCF correction =     0.000058
     SCF correction compared to forces is large: reduce conv_thr to get better values


     Computing stress (Cartesian axis) and pressure


     negative rho (up, down):  7.678E-03 0.000E+00
          total   stress  (Ry/bohr**3)                   (kbar)     P=   -0.94
   0.00000002  -0.00000000   0.00000000          0.00     -0.00      0.00
  -0.00000000   0.00000002   0.00000000         -0.00      0.00      0.00
   0.00000000   0.00000000  -0.00001920          0.00      0.00     -2.82


     number of scf cycles    =   3
     number of bfgs steps    =   2

     enthalpy old            =   -1953.5648539736 Ry
     enthalpy new            =   -1953.5648540247 Ry

     CASE: enthalpy_new < enthalpy_old

     Message from routine bfgs:
     history already reset at previous step: stopping
     small trust_radius: resetting bfgs history

     new trust radius        =       0.0000408151 bohr
     new conv_thr            =       0.0000000100 Ry

     new unit-cell volume =  36104.58919 a.u.^3 (  5350.14806 Ang^3 )
     density =      0.36500 g/cm^3

CELL_PARAMETERS (alat= 33.23461096)
   0.999334482   0.000000000   0.000000000
  -0.499667241   0.865449048   0.000000000
   0.000000000   0.000000000   1.137203616

ATOMIC_POSITIONS (crystal)
B        0.047623223   0.095246446   0.500000000
B        0.047618875   0.238098544   0.500000000
B        0.047620975   0.380945622   0.500000000
B        0.047624246   0.523812624   0.500000000
B        0.047620975   0.666675354   0.500000000
B        0.047618875   0.809520331   0.500000000
B        0.047623223   0.952376777   0.500000000
B        0.190486774   0.095243388   0.500000000
B        0.190479669   0.238098544   0.500000000
B        0.190475807   0.380951614   0.500000000
B        0.190484508   0.523813001   0.500000000
B        0.190484508   0.666672508   0.500000000
B        0.190475807   0.809524193   0.500000000
B        0.190479669   0.952381125   0.500000000
B        0.333331486   0.095241693   0.500000000
B        0.333331486   0.238089792   0.500000000
B        0.333324646   0.380945622   0.500000000
B        0.333327492   0.523813001   0.500000000
B        0.333333000   0.666667000   0.500000000
B        0.333327492   0.809515492   0.500000000
B        0.333324646   0.952379025   0.500000000
B        0.476187531   0.095245274   0.500000000
B        0.476187194   0.238093597   0.500000000
B        0.476187531   0.380942257   0.500000000
B        0.476187376   0.523812624   0.500000000
B        0.476186999   0.666672508   0.500000000
B        0.476186999   0.809515492   0.500000000
B        0.476187376   0.952375754   0.500000000
B        0.619057743   0.095245274   0.500000000
B        0.619050610   0.238100220   0.500000000
B        0.619050610   0.380949390   0.500000000
B        0.619057743   0.523812469   0.500000000
B        0.619054378   0.666675354   0.500000000
B        0.619048386   0.809524193   0.500000000
B        0.619054378   0.952379025   0.500000000
B        0.761910208   0.095241693   0.500000000
B        0.761906403   0.238093597   0.500000000
B        0.761899780   0.380949390   0.500000000
B        0.761906403   0.523812806   0.500000000
B        0.761910208   0.666668514   0.500000000
B        0.761901456   0.809520331   0.500000000
B        0.761901456   0.952381125   0.500000000
B        0.904756612   0.095243388   0.500000000
B        0.904758307   0.238089792   0.500000000
B        0.904754726   0.380942257   0.500000000
B        0.904754726   0.523812469   0.500000000
B        0.904758307   0.666668514   0.500000000
B        0.904756612   0.809513226   0.500000000
B        0.904753554   0.952376777   0.500000000
N        0.095243849   0.047621924   0.500000000
N        0.095241692   0.190483384   0.500000000
N        0.095240348   0.333331987   0.500000000
N        0.095242911   0.476188486   0.500000000
N        0.095242911   0.619054426   0.500000000
N        0.095240348   0.761908361   0.500000000
N        0.095241692   0.904758308   0.500000000
N        0.238097771   0.047619281   0.500000000
N        0.238097771   0.190478490   0.500000000
N        0.238091639   0.333331987   0.500000000
N        0.238094232   0.476188463   0.500000000
N        0.238098681   0.619049840   0.500000000
N        0.238094232   0.761905768   0.500000000
N        0.238091639   0.904759652   0.500000000
N        0.380947819   0.047620592   0.500000000
N        0.380951755   0.190475877   0.500000000
N        0.380947819   0.333327227   0.500000000
N        0.380945574   0.476188486   0.500000000
N        0.380950160   0.619049840   0.500000000
N        0.380950160   0.761901319   0.500000000
N        0.380945574   0.904757089   0.500000000
N        0.523811774   0.047622549   0.500000000
N        0.523811803   0.190481734   0.500000000
N        0.523811803   0.333329069   0.500000000
N        0.523811774   0.476188226   0.500000000
N        0.523811514   0.619054426   0.500000000
N        0.523811537   0.761905768   0.500000000
N        0.523811514   0.904757089   0.500000000
N        0.666672773   0.047620592   0.500000000
N        0.666670931   0.190481734   0.500000000
N        0.666667000   0.333333000   0.500000000
N        0.666670931   0.476188197   0.500000000
N        0.666672773   0.619052181   0.500000000
N        0.666668013   0.761908361   0.500000000
N        0.666668013   0.904759652   0.500000000
N        0.809521510   0.047619281   0.500000000
N        0.809524123   0.190475877   0.500000000
N        0.809518266   0.333329069   0.500000000
N        0.809518266   0.476188197   0.500000000
N        0.809524123   0.619048245   0.500000000
N        0.809521510   0.761902229   0.500000000
N        0.809516616   0.904758308   0.500000000
N        0.952378076   0.047621924   0.500000000
N        0.952380719   0.190478490   0.500000000
N        0.952379408   0.333327227   0.500000000
N        0.952377451   0.476188226   0.500000000
N        0.952379408   0.619052181   0.500000000
N        0.952380719   0.761902229   0.500000000
N        0.952378076   0.904756151   0.500000000



     Writing output data file hBN.save/
     Message from routine punch:
     wavefunctions written to file
     NEW-OLD atomic charge density approx. for the potential

     negative rho (up, down):  7.678E-03 0.000E+00
     extrapolated charge  392.00040, renormalised to  392.00000

     total cpu time spent up to now is     1450.5 secs

     Self-consistent Calculation

     iteration #  1     ecut=    40.00 Ry     beta= 0.70
     CG style diagonalization
     ethr =  1.00E-06,  avg # of iterations =  2.0

     Threshold (ethr) on eigenvalues was too large:
     Diagonalizing with lowered threshold

     CG style diagonalization
     ethr =  2.35E-12,  avg # of iterations = 16.9

     negative rho (up, down):  7.677E-03 0.000E+00

     total cpu time spent up to now is     1697.8 secs

     total energy              =   -1953.56485401 Ry
     Harris-Foulkes estimate   =   -1953.55431758 Ry
     estimated scf accuracy    <       0.00000003 Ry

     iteration #  2     ecut=    40.00 Ry     beta= 0.70
     CG style diagonalization
     ethr =  8.93E-12,  avg # of iterations =  4.1

     negative rho (up, down):  7.677E-03 0.000E+00

     total cpu time spent up to now is     1749.7 secs

     total energy              =   -1953.56485401 Ry
     Harris-Foulkes estimate   =   -1953.56485403 Ry
     estimated scf accuracy    <       0.00000002 Ry

     iteration #  3     ecut=    40.00 Ry     beta= 0.70
     CG style diagonalization
     ethr =  5.60E-12,  avg # of iterations =  3.8

     negative rho (up, down):  7.677E-03 0.000E+00

     total cpu time spent up to now is     1797.7 secs

     End of self-consistent calculation

          k = 0.0000 0.0000 0.0000 ( 77079 PWs)   bands (ev):

   -21.7009 -21.3144 -21.3143 -21.3143 -21.3135 -21.3135 -21.3135 -20.5749
   -20.5749 -20.5749 -20.5749 -20.5749 -20.5749 -20.2327 -20.2323 -20.2322
   -20.2314 -20.2314 -20.2309 -19.3075 -19.3075 -19.3075 -19.3075 -19.3074
   -19.3074 -19.3070 -19.3070 -19.3070 -19.3069 -19.3069 -19.3069 -18.9113
   -18.9113 -18.9113 -18.9113 -18.9113 -18.9112 -18.4559 -18.4559 -18.4557
   -18.4557 -18.4547 -18.4547 -18.2916 -18.2916 -18.2915 -18.2915 -18.2915
   -18.2915 -12.6990 -12.6990 -12.6983 -12.6983 -12.6981 -12.6981 -12.4956
   -12.4956 -12.4956 -12.4956 -12.4955 -12.4955 -12.0078 -12.0078 -12.0077
   -12.0077 -12.0077 -12.0077 -11.3103 -11.3103 -11.3103 -11.3103 -11.3103
   -11.3103 -11.3098 -11.3098 -11.3098 -11.3098 -11.3097 -11.3097 -10.6483
   -10.6483 -10.6483 -10.6483 -10.6483 -10.6483  -9.9387  -9.9385  -9.9385
    -9.9381  -9.9380  -9.9378  -9.2821  -9.2359  -9.2359  -9.2356  -9.2356
    -9.2352  -9.2352  -8.8127  -8.8127  -8.8127  -8.8127  -8.8127  -8.8127
    -8.7683  -8.7683  -8.7682  -8.7682  -8.7682  -8.7682  -8.7672  -8.7672
    -8.7672  -8.7672  -8.7672  -8.7671  -8.7611  -8.7611  -8.7611  -8.7604
    -8.7604  -8.7604  -8.0941  -8.0941  -8.0941  -8.0941  -8.0940  -8.0940
    -7.7567  -7.7567  -7.7567  -7.7567  -7.7567  -7.7567  -7.4161  -7.4161
    -7.4161  -7.4161  -7.4160  -7.4160  -7.3101  -7.3100  -7.3100  -7.3098
    -7.3098  -7.3097  -7.2850  -7.2847  -7.2846  -7.2839  -7.2839  -7.2835
    -6.9169  -6.9169  -6.9169  -6.9166  -6.9166  -6.9166  -6.0945  -6.0944
    -6.0944  -6.0936  -6.0935  -6.0935  -5.9845  -5.9845  -5.9845  -5.9845
    -5.9844  -5.9844  -5.9841  -5.9841  -5.9841  -5.9841  -5.9841  -5.9841
[...]
        90           N   tau(  90) = (   0.4282852   0.6593876   0.5686018  )
        91           N   tau(  91) = (   0.3568998   0.7830222   0.5686018  )
        92           N   tau(  92) = (   0.9279491   0.0412143   0.5686018  )
        93           N   tau(  93) = (   0.8565710   0.1648494   0.5686018  )
        94           N   tau(  94) = (   0.7851929   0.2884777   0.5686018  )
        95           N   tau(  95) = (   0.7138080   0.4121166   0.5686018  )
        96           N   tau(  96) = (   0.6424255   0.5357581   0.5686018  )
        97           N   tau(  97) = (   0.5710493   0.6593876   0.5686018  )
        98           N   tau(  98) = (   0.4996672   0.7830203   0.5686018  )

     number of k points=     1
                       cart. coord. in units 2pi/alat
        k(    1) = (   0.0000000   0.0000000   0.0000000), wk =   2.0000000

     Dense  grid:  3408198 G-vectors     FFT dimensions: ( 240, 240, 270)

     Smooth grid:   616895 G-vectors     FFT dimensions: ( 135, 135, 160)

     Estimated max dynamical RAM per process >       1.31 GB

     Estimated total dynamical RAM >      20.90 GB

     Initial potential from superposition of free atoms

     starting charge  391.98580, renormalised to  392.00000

     negative rho (up, down):  4.265E-03 0.000E+00
     Starting wfcs are  392 randomized atomic wfcs
     Checking if some PAW data can be deallocated... 

     total cpu time spent up to now is     1903.9 secs

     Self-consistent Calculation

     iteration #  1     ecut=    40.00 Ry     beta= 0.70
     CG style diagonalization
     ethr =  1.00E-06,  avg # of iterations = 13.2

     negative rho (up, down):  6.727E-03 0.000E+00

     total cpu time spent up to now is     2075.6 secs

     total energy              =   -1947.01651412 Ry
     Harris-Foulkes estimate   =   -1960.23007360 Ry
     estimated scf accuracy    <      19.60533105 Ry

     iteration #  2     ecut=    40.00 Ry     beta= 0.70
     CG style diagonalization
     ethr =  5.00E-03,  avg # of iterations =  4.1

     negative rho (up, down):  2.094E-02 0.000E+00

     total cpu time spent up to now is     2128.0 secs

     total energy              =   -1951.48878345 Ry
     Harris-Foulkes estimate   =   -1956.58332273 Ry
     estimated scf accuracy    <       9.65308483 Ry

     iteration #  3     ecut=    40.00 Ry     beta= 0.70
     CG style diagonalization
     ethr =  2.46E-03,  avg # of iterations =  4.0

     negative rho (up, down):  8.146E-03 0.000E+00

     total cpu time spent up to now is     2178.8 secs

     total energy              =   -1953.51815993 Ry
     Harris-Foulkes estimate   =   -1953.53294207 Ry
     estimated scf accuracy    <       0.07852668 Ry

     iteration #  4     ecut=    40.00 Ry     beta= 0.70
     CG style diagonalization
     ethr =  2.00E-05,  avg # of iterations =  4.3

     negative rho (up, down):  7.902E-03 0.000E+00

     total cpu time spent up to now is     2233.6 secs

     total energy              =   -1953.56112843 Ry
     Harris-Foulkes estimate   =   -1953.57279252 Ry
     estimated scf accuracy    <       0.02649019 Ry

     iteration #  5     ecut=    40.00 Ry     beta= 0.70
     CG style diagonalization
     ethr =  6.76E-06,  avg # of iterations =  3.7

     negative rho (up, down):  7.859E-03 0.000E+00

     total cpu time spent up to now is     2280.6 secs

     total energy              =   -1953.56443464 Ry
     Harris-Foulkes estimate   =   -1953.56442473 Ry
     estimated scf accuracy    <       0.00125245 Ry

     iteration #  6     ecut=    40.00 Ry     beta= 0.70
     CG style diagonalization
     ethr =  3.20E-07,  avg # of iterations =  4.1

     negative rho (up, down):  7.690E-03 0.000E+00

     total cpu time spent up to now is     2332.7 secs

     total energy              =   -1953.56483638 Ry
     Harris-Foulkes estimate   =   -1953.56492997 Ry
     estimated scf accuracy    <       0.00021775 Ry

     iteration #  7     ecut=    40.00 Ry     beta= 0.70
     CG style diagonalization
     ethr =  5.55E-08,  avg # of iterations =  3.3

     negative rho (up, down):  7.669E-03 0.000E+00

     total cpu time spent up to now is     2373.8 secs

     total energy              =   -1953.56484163 Ry
     Harris-Foulkes estimate   =   -1953.56486055 Ry
     estimated scf accuracy    <       0.00003695 Ry

     iteration #  8     ecut=    40.00 Ry     beta= 0.70
     CG style diagonalization
     ethr =  9.43E-09,  avg # of iterations =  4.1

     negative rho (up, down):  7.675E-03 0.000E+00

     total cpu time spent up to now is     2425.9 secs

     total energy              =   -1953.56485375 Ry
     Harris-Foulkes estimate   =   -1953.56485449 Ry
     estimated scf accuracy    <       0.00000184 Ry

     iteration #  9     ecut=    40.00 Ry     beta= 0.70
     CG style diagonalization
     ethr =  4.69E-10,  avg # of iterations =  3.7

     negative rho (up, down):  7.677E-03 0.000E+00

     total cpu time spent up to now is     2472.9 secs

     total energy              =   -1953.56485401 Ry
     Harris-Foulkes estimate   =   -1953.56485408 Ry
     estimated scf accuracy    <       0.00000027 Ry

     iteration # 10     ecut=    40.00 Ry     beta= 0.70
     CG style diagonalization
     ethr =  6.99E-11,  avg # of iterations =  3.3

     negative rho (up, down):  7.677E-03 0.000E+00

     total cpu time spent up to now is     2514.7 secs

     total energy              =   -1953.56485402 Ry
     Harris-Foulkes estimate   =   -1953.56485404 Ry
     estimated scf accuracy    <       0.00000008 Ry

     iteration # 11     ecut=    40.00 Ry     beta= 0.70
     CG style diagonalization
     ethr =  1.99E-11,  avg # of iterations =  3.7

     negative rho (up, down):  7.678E-03 0.000E+00

     total cpu time spent up to now is     2562.9 secs

     total energy              =   -1953.56485402 Ry
     Harris-Foulkes estimate   =   -1953.56485403 Ry
     estimated scf accuracy    <       0.00000002 Ry

     iteration # 12     ecut=    40.00 Ry     beta= 0.70
     CG style diagonalization
     ethr =  5.50E-12,  avg # of iterations =  4.1

     negative rho (up, down):  7.677E-03 0.000E+00

     total cpu time spent up to now is     2614.6 secs

     End of self-consistent calculation

          k = 0.0000 0.0000 0.0000 ( 77079 PWs)   bands (ev):

   -21.7008 -21.3143 -21.3143 -21.3143 -21.3135 -21.3135 -21.3134 -20.5748
   -20.5748 -20.5748 -20.5748 -20.5748 -20.5748 -20.2326 -20.2322 -20.2322
   -20.2314 -20.2313 -20.2309 -19.3074 -19.3074 -19.3074 -19.3074 -19.3074
   -19.3074 -19.3070 -19.3069 -19.3069 -19.3069 -19.3069 -19.3069 -18.9113
   -18.9113 -18.9113 -18.9112 -18.9112 -18.9112 -18.4558 -18.4558 -18.4557
   -18.4557 -18.4547 -18.4546 -18.2915 -18.2915 -18.2915 -18.2915 -18.2915
   -18.2914 -12.6989 -12.6989 -12.6983 -12.6983 -12.6980 -12.6980 -12.4956
   -12.4956 -12.4955 -12.4955 -12.4955 -12.4955 -12.0077 -12.0077 -12.0077
   -12.0077 -12.0077 -12.0077 -11.3103 -11.3103 -11.3103 -11.3103 -11.3102
   -11.3102 -11.3098 -11.3098 -11.3097 -11.3097 -11.3097 -11.3097 -10.6483
   -10.6483 -10.6483 -10.6483 -10.6482 -10.6482  -9.9387  -9.9385  -9.9385
    -9.9380  -9.9380  -9.9378  -9.2821  -9.2359  -9.2359  -9.2356  -9.2356
    -9.2351  -9.2351  -8.8127  -8.8127  -8.8127  -8.8127  -8.8127  -8.8127
    -8.7682  -8.7682  -8.7682  -8.7682  -8.7682  -8.7682  -8.7672  -8.7672
    -8.7671  -8.7671  -8.7671  -8.7671  -8.7611  -8.7611  -8.7611  -8.7604
    -8.7603  -8.7603  -8.0941  -8.0941  -8.0940  -8.0940  -8.0940  -8.0940
    -7.7567  -7.7567  -7.7567  -7.7567  -7.7567  -7.7567  -7.4161  -7.4160
    -7.4160  -7.4160  -7.4160  -7.4160  -7.3101  -7.3100  -7.3100  -7.3098
    -7.3098  -7.3097  -7.2850  -7.2846  -7.2846  -7.2839  -7.2839  -7.2835
    -6.9169  -6.9169  -6.9169  -6.9166  -6.9166  -6.9166  -6.0944  -6.0944
    -6.0944  -6.0936  -6.0935  -6.0935  -5.9844  -5.9844  -5.9844  -5.9844
    -5.9844  -5.9844  -5.9841  -5.9841  -5.9841  -5.9841  -5.9841  -5.9841
    -5.4108  -5.4107  -5.3912  -5.3912  -5.3912  -5.3912  -5.3912  -5.3912
    -4.6938  -4.6938  -4.6936  -4.6936  -4.6930  -4.6930  -4.4491  -4.4491
    -4.4491  -4.4491  -4.4490  -4.4490

     highest occupied level (ev):    -4.4490

!    total energy              =   -1953.56485402 Ry
     Harris-Foulkes estimate   =   -1953.56485402 Ry
     estimated scf accuracy    <          5.6E-10 Ry

     total all-electron energy =     -7810.933983 Ry

     The total energy is the sum of the following terms:

     one-electron contribution =  -10743.30787713 Ry
     hartree contribution      =    5458.41518051 Ry
     xc contribution           =    -431.71508861 Ry
     ewald contribution        =    4409.14371032 Ry
     DFT-D3 Dispersion         =      -0.27036123 Ry
     one-center paw contrib.   =    -645.83041788 Ry

     convergence has been achieved in  12 iterations

     negative rho (up, down):  7.677E-03 0.000E+00

     Forces acting on atoms (cartesian axes, Ry/au):

     atom    1 type  1   force =    -0.00000000    0.00002576   -0.00000000
     atom    2 type  1   force =    -0.00000804    0.00000902    0.00000000
     atom    3 type  1   force =     0.00001047   -0.00002896   -0.00000000
     atom    4 type  1   force =    -0.00000065   -0.00000037   -0.00000000
     atom    5 type  1   force =    -0.00001985    0.00002355   -0.00000000
     atom    6 type  1   force =     0.00000379   -0.00001148   -0.00000000
     atom    7 type  1   force =     0.00002231   -0.00001288    0.00000000
     atom    8 type  1   force =     0.00003076    0.00001776    0.00000000
     atom    9 type  1   force =     0.00000804    0.00000902   -0.00000000
     atom   10 type  1   force =     0.00000000   -0.00001446    0.00000000
     atom   11 type  1   force =     0.00001795   -0.00000396   -0.00000000
     atom   12 type  1   force =     0.00000555    0.00001753    0.00000000
     atom   13 type  1   force =    -0.00001253    0.00000723    0.00000000
     atom   14 type  1   force =     0.00001184    0.00000246   -0.00000000
     atom   15 type  1   force =    -0.00000708    0.00001715    0.00000000
     atom   16 type  1   force =     0.00001132   -0.00001470   -0.00000000
     atom   17 type  1   force =    -0.00001047   -0.00002896   -0.00000000
     atom   18 type  1   force =    -0.00001795   -0.00000396    0.00000000
     atom   19 type  1   force =     0.00000000    0.00000000    0.00000000
     atom   20 type  1   force =    -0.00001241   -0.00001357    0.00000000
     atom   21 type  1   force =    -0.00003032    0.00000541   -0.00000000
     atom   22 type  1   force =    -0.00001936    0.00003709    0.00000000
     atom   23 type  1   force =     0.00000327    0.00000189   -0.00000000
     atom   24 type  1   force =     0.00002244   -0.00003531   -0.00000000
     atom   25 type  1   force =     0.00000065   -0.00000037    0.00000000
     atom   26 type  1   force =    -0.00000555    0.00001753   -0.00000000
     atom   27 type  1   force =     0.00001241   -0.00001357    0.00000000
     atom   28 type  1   force =    -0.00000000    0.00000075   -0.00000000
     atom   29 type  1   force =     0.00001936    0.00003709    0.00000000
     atom   30 type  1   force =    -0.00000000    0.00002647    0.00000000
     atom   31 type  1   force =     0.00002292   -0.00001323    0.00000000
     atom   32 type  1   force =     0.00004180   -0.00000178    0.00000000
     atom   33 type  1   force =     0.00001985    0.00002355    0.00000000
     atom   34 type  1   force =     0.00001253    0.00000723   -0.00000000
     atom   35 type  1   force =     0.00003032    0.00000541    0.00000000
     atom   36 type  1   force =     0.00000708    0.00001715    0.00000000
     atom   37 type  1   force =    -0.00000327    0.00000189   -0.00000000
     atom   38 type  1   force =    -0.00002292   -0.00001323    0.00000000
     atom   39 type  1   force =     0.00000000   -0.00000378    0.00000000
     atom   40 type  1   force =     0.00001839   -0.00000245   -0.00000000
     atom   41 type  1   force =    -0.00000379   -0.00001148    0.00000000
     atom   42 type  1   force =    -0.00001184    0.00000246   -0.00000000
     atom   43 type  1   force =    -0.00003076    0.00001776    0.00000000
     atom   44 type  1   force =    -0.00001132   -0.00001470    0.00000000
     atom   45 type  1   force =    -0.00002244   -0.00003531    0.00000000
     atom   46 type  1   force =    -0.00004180   -0.00000178   -0.00000000
     atom   47 type  1   force =    -0.00001839   -0.00000245    0.00000000
     atom   48 type  1   force =     0.00000000   -0.00003552   -0.00000000
     atom   49 type  1   force =    -0.00002231   -0.00001288    0.00000000
     atom   50 type  2   force =    -0.00002520   -0.00001455    0.00000000
     atom   51 type  2   force =     0.00000000   -0.00003530   -0.00000000
     atom   52 type  2   force =    -0.00001255    0.00001080    0.00000000
     atom   53 type  2   force =    -0.00002163    0.00001879    0.00000000
     atom   54 type  2   force =     0.00000545   -0.00002813    0.00000000
     atom   55 type  2   force =     0.00000308   -0.00001627    0.00000000
     atom   56 type  2   force =    -0.00003057    0.00001765    0.00000000
     atom   57 type  2   force =    -0.00001731   -0.00000354    0.00000000
     atom   58 type  2   force =    -0.00001172   -0.00001322    0.00000000
     atom   59 type  2   force =     0.00001255    0.00001080   -0.00000000
     atom   60 type  2   force =    -0.00000000    0.00002190    0.00000000
     atom   61 type  2   force =    -0.00000793   -0.00000458   -0.00000000
     atom   62 type  2   force =     0.00001897   -0.00001095    0.00000000
     atom   63 type  2   force =     0.00001563    0.00000546    0.00000000
     atom   64 type  2   force =     0.00002547   -0.00001671    0.00000000
     atom   65 type  2   force =    -0.00000690   -0.00000398    0.00000000
     atom   66 type  2   force =    -0.00000174    0.00003041    0.00000000
     atom   67 type  2   force =     0.00002163    0.00001879    0.00000000
     atom   68 type  2   force =     0.00000793   -0.00000458    0.00000000
     atom   69 type  2   force =    -0.00000000    0.00000915   -0.00000000
     atom   70 type  2   force =     0.00002708    0.00000934   -0.00000000
     atom   71 type  2   force =     0.00000000   -0.00003304    0.00000000
     atom   72 type  2   force =    -0.00000101   -0.00003921    0.00000000
     atom   73 type  2   force =    -0.00003446    0.00001874   -0.00000000
     atom   74 type  2   force =    -0.00002861    0.00001652    0.00000000
     atom   75 type  2   force =    -0.00000545   -0.00002813    0.00000000
     atom   76 type  2   force =    -0.00001897   -0.00001095    0.00000000
     atom   77 type  2   force =    -0.00002708    0.00000934    0.00000000
     atom   78 type  2   force =    -0.00002547   -0.00001671   -0.00000000
     atom   79 type  2   force =     0.00000101   -0.00003921    0.00000000
     atom   80 type  2   force =     0.00000000    0.00000000    0.00000000
     atom   81 type  2   force =    -0.00003346    0.00002048    0.00000000
     atom   82 type  2   force =    -0.00002720   -0.00001370    0.00000000
     atom   83 type  2   force =    -0.00000308   -0.00001627    0.00000000
     atom   84 type  2   force =    -0.00001563    0.00000546    0.00000000
     atom   85 type  2   force =     0.00001731   -0.00000354   -0.00000000
     atom   86 type  2   force =     0.00000690   -0.00000398   -0.00000000
     atom   87 type  2   force =     0.00003446    0.00001874    0.00000000
     atom   88 type  2   force =     0.00003346    0.00002048    0.00000000
     atom   89 type  2   force =    -0.00000000    0.00000796    0.00000000
     atom   90 type  2   force =     0.00000559    0.00001676    0.00000000
     atom   91 type  2   force =     0.00003057    0.00001765   -0.00000000
     atom   92 type  2   force =     0.00002520   -0.00001455    0.00000000
     atom   93 type  2   force =     0.00001172   -0.00001322    0.00000000
     atom   94 type  2   force =     0.00000174    0.00003041   -0.00000000
     atom   95 type  2   force =     0.00002861    0.00001652    0.00000000
     atom   96 type  2   force =     0.00002720   -0.00001370   -0.00000000
     atom   97 type  2   force =    -0.00000559    0.00001676   -0.00000000
     atom   98 type  2   force =    -0.00000000    0.00002910    0.00000000

     Total force =     0.000254     Total SCF correction =     0.000032
     SCF correction compared to forces is large: reduce conv_thr to get better values


     Computing stress (Cartesian axis) and pressure


     negative rho (up, down):  7.677E-03 0.000E+00
          total   stress  (Ry/bohr**3)                   (kbar)     P=   -0.94
   0.00000002  -0.00000000   0.00000000          0.00     -0.00      0.00
  -0.00000000   0.00000002  -0.00000000         -0.00      0.00     -0.00
   0.00000000   0.00000000  -0.00001919          0.00      0.00     -2.82


     Writing output data file hBN.save/
 
     init_run     :     53.40s CPU     57.13s WALL (       2 calls)
     electrons    :   2030.30s CPU   2124.12s WALL (       5 calls)
     update_pot   :     93.61s CPU     96.33s WALL (       3 calls)
     forces       :    111.31s CPU    122.61s WALL (       5 calls)
     stress       :    253.21s CPU    259.20s WALL (       5 calls)

     Called by init_run:
     wfcinit      :      8.26s CPU      8.81s WALL (       2 calls)
     potinit      :     20.29s CPU     21.94s WALL (       2 calls)
     hinit0       :     20.60s CPU     20.85s WALL (       2 calls)

     Called by electrons:
     c_bands      :   1761.20s CPU   1787.68s WALL (      36 calls)
     sum_band     :     69.56s CPU     91.53s WALL (      36 calls)
     v_of_rho     :    120.59s CPU    146.25s WALL (      38 calls)
     newd         :     22.84s CPU     42.42s WALL (      38 calls)
     PAW_pot      :     70.91s CPU     71.29s WALL (      41 calls)
     mix_rho      :      6.46s CPU      7.39s WALL (      36 calls)

     Called by c_bands:
     init_us_2    :      1.60s CPU      1.77s WALL (      77 calls)
     rcgdiagg     :   1698.08s CPU   1721.10s WALL (      39 calls)
     wfcrot       :     69.89s CPU     73.60s WALL (      33 calls)

     Called by sum_band:
     sum_band:bec :      0.01s CPU      0.01s WALL (      39 calls)
     addusdens    :     20.38s CPU     40.62s WALL (      36 calls)

     Called by *cgdiagg:
     h_psi        :    973.67s CPU    994.25s WALL (   25869 calls)
     s_psi        :    420.61s CPU    422.94s WALL (   51705 calls)
     rdiaghg      :      0.41s CPU      0.44s WALL (      33 calls)

     Called by h_psi:
     h_psi:pot    :    972.96s CPU    993.49s WALL (   25869 calls)
     h_psi:calbec :    245.97s CPU    247.55s WALL (   25869 calls)
     vloc_psi     :    510.50s CPU    528.25s WALL (   25869 calls)
     add_vuspsi   :    216.13s CPU    217.41s WALL (   25869 calls)
     hs_1psi      :   1119.78s CPU   1139.31s WALL (   25836 calls)
     s_1psi       :    445.01s CPU    447.31s WALL (   25836 calls)

     General routines
     calbec       :    486.19s CPU    489.38s WALL (   51769 calls)
     fft          :    124.40s CPU    154.66s WALL (     514 calls)
     ffts         :      0.95s CPU      1.04s WALL (      74 calls)
     fftw         :    373.87s CPU    391.48s WALL (   62060 calls)
     interpolate  :      3.62s CPU      3.97s WALL (      38 calls)
     davcio       :      0.00s CPU      0.27s WALL (       4 calls)
 
     Parallel routines
     fft_scatt_xy :     53.38s CPU     53.80s WALL (   62648 calls)
     fft_scatt_yz :    148.05s CPU    192.70s WALL (   62648 calls)
 
     PWSCF        :  42m31.78s CPU  44m37.08s WALL

 
   This run was terminated on:  19:50:48   5Jun2021            

=------------------------------------------------------------------------------=
   JOB DONE.
=------------------------------------------------------------------------------=
