
     Program PWSCF v.6.4.1 starts on 29Jul2021 at 23:25:37 

     This program is part of the open-source Quantum ESPRESSO suite
     for quantum simulation of materials; please cite
         "P. Giannozzi et al., J. Phys.:Condens. Matter 21 395502 (2009);
         "P. Giannozzi et al., J. Phys.:Condens. Matter 29 465901 (2017);
          URL http://www.quantum-espresso.org", 
     in publications or presentations arising from this work. More details at
     http://www.quantum-espresso.org/quote

     Parallel version (MPI), running on    64 processors

     MPI processes distributed on     2 nodes
     R & G space division:  proc/nbgrp/npool/nimage =      64
     Waiting for input...
     Reading input from standard input

     Current dimensions of program PWSCF are:
     Max number of different atomic species (ntypx) = 10
     Max number of k-points (npk) =  40000
     Max angular momentum in pseudopotentials (lmaxx) =  3

     IMPORTANT: XC functional enforced from input :
     Exchange-correlation      = HSE ( 1  4 12  4 0 0)
     EXX-fraction              =        0.25
     Using LIBXC version       =    4   3   4
     Any further DFT definition will be discarded
     Please, verify this is what you really want

               file N.pbe-n-kjpaw_psl.1.0.0.UPF: wavefunction(s)  2S renormalized
               file C.pbe-n-kjpaw_psl.1.0.0.UPF: wavefunction(s)  2S 2P renormalized
               file C.pbe-n-kjpaw_psl.1.0.0.UPF: wavefunction(s)  2S 2P renormalized
               file C.pbe-n-kjpaw_psl.1.0.0.UPF: wavefunction(s)  2S 2P renormalized
     EXX fraction changed:   0.32
     EXX Screening parameter changed:    0.0455000

     --------------------------------------------
     Parameters for DFT-D3 Dispersion Correction:
     --------------------------------------------
       Reference C6 values for interpolation: 

         atom   Coordination number   C6
         B          0.000           214.36
         B          0.971           150.74
         B          1.944           106.23
         B          2.913            62.89
         B          4.586            56.06
         C1         0.000            98.23
         C1         0.987            86.49
         C1         1.998            58.72
         C1         2.999            51.56
         C1         3.984            36.41
         C2         0.000            98.23
         C2         0.987            86.49
         C2         1.998            58.72
         C2         2.999            51.56
         C2         3.984            36.41
         C3         0.000            98.23
         C3         0.987            86.49
         C3         1.998            58.72
         C3         2.999            51.56
         C3         3.984            36.41
         N          0.000            50.54
         N          0.994            44.25
         N          2.014            39.35
         N          2.990            31.16

       Values used:

         atom   Coordination number  R0_AB[au]  C6      C8
         B          3.325            3.039     62.90   2506.25
         B          3.316            3.039     62.90   2506.45
         B          3.315            3.039     62.90   2506.48
         B          3.325            3.039     62.90   2506.25
         B          3.326            3.039     62.90   2506.23
         B          3.323            3.039     62.90   2506.30
         B          3.325            3.039     62.90   2506.25
         B          3.322            3.039     62.90   2506.31
         B          3.323            3.039     62.90   2506.29
         B          3.300            3.039     62.91   2506.82
         B          3.321            3.039     62.90   2506.35
         B          3.328            3.039     62.90   2506.17
         B          3.324            3.039     62.90   2506.27
         B          3.323            3.039     62.90   2506.30
         B          3.323            3.039     62.90   2506.30
         B          3.321            3.039     62.90   2506.34
         B          3.288            3.039     62.92   2507.09
         B          3.286            3.039     62.92   2507.12
         B          3.336            3.039     62.89   2505.98
         B          3.328            3.039     62.90   2506.17
         B          3.326            3.039     62.90   2506.23
         B          3.322            3.039     62.90   2506.32
         B          3.317            3.039     62.90   2506.44
         B          3.314            3.039     62.90   2506.50
         C2         3.241            2.750     49.54   1432.92
         B          3.286            3.039     62.92   2507.12
         B          3.321            3.039     62.90   2506.35
         B          3.325            3.039     62.90   2506.25
         B          3.320            3.039     62.90   2506.38
         B          3.319            3.039     62.90   2506.39
         B          3.318            3.039     62.90   2506.43
         B          3.314            3.039     62.90   2506.50
         B          3.288            3.039     62.92   2507.09
         B          3.300            3.039     62.91   2506.82
         B          3.315            3.039     62.90   2506.48
         B          3.315            3.039     62.90   2506.48
         B          3.317            3.039     62.90   2506.44
         B          3.319            3.039     62.90   2506.39
         B          3.317            3.039     62.90   2506.44
         B          3.321            3.039     62.90   2506.34
         B          3.323            3.039     62.90   2506.29
         B          3.316            3.039     62.90   2506.45
         B          3.318            3.039     62.90   2506.41
         B          3.315            3.039     62.90   2506.48
         B          3.320            3.039     62.90   2506.38
         B          3.322            3.039     62.90   2506.32
         B          3.323            3.039     62.90   2506.30
         B          3.322            3.039     62.90   2506.31
         B          3.325            3.039     62.90   2506.25
         N          3.129            2.478     31.22    688.75
         N          3.128            2.478     31.22    688.75
         N          3.124            2.478     31.22    688.79
         N          3.128            2.478     31.22    688.76
         N          3.130            2.478     31.22    688.73
         N          3.129            2.478     31.22    688.75
         N          3.128            2.478     31.22    688.75
         N          3.128            2.478     31.22    688.75
         N          3.128            2.478     31.22    688.75
         N          3.123            2.478     31.22    688.80
         N          3.121            2.478     31.22    688.82
         N          3.132            2.478     31.22    688.72
         N          3.129            2.478     31.22    688.74
         N          3.129            2.478     31.22    688.75
         N          3.129            2.478     31.22    688.74
         N          3.128            2.478     31.22    688.75
         N          3.129            2.478     31.22    688.75
         C1         3.180            2.750     50.26   1453.67
         N          3.131            2.478     31.22    688.72
         N          3.132            2.478     31.22    688.72
         N          3.130            2.478     31.22    688.73
         N          3.129            2.478     31.22    688.75
         N          3.127            2.478     31.22    688.76
         N          3.126            2.478     31.22    688.77
         N          3.148            2.478     31.21    688.57
         C3         3.180            2.750     50.26   1453.67
         N          3.121            2.478     31.22    688.82
         N          3.128            2.478     31.22    688.76
         N          3.126            2.478     31.22    688.77
         N          3.127            2.478     31.22    688.77
         N          3.127            2.478     31.22    688.77
         N          3.126            2.478     31.22    688.77
         N          3.129            2.478     31.22    688.75
         N          3.123            2.478     31.22    688.80
         N          3.124            2.478     31.22    688.79
         N          3.126            2.478     31.22    688.77
         N          3.126            2.478     31.22    688.78
         N          3.127            2.478     31.22    688.77
         N          3.127            2.478     31.22    688.76
         N          3.128            2.478     31.22    688.75
         N          3.128            2.478     31.22    688.75
         N          3.128            2.478     31.22    688.75
         N          3.129            2.478     31.22    688.75
         N          3.126            2.478     31.22    688.77
         N          3.126            2.478     31.22    688.77
         N          3.129            2.478     31.22    688.75
         N          3.129            2.478     31.22    688.74
         N          3.128            2.478     31.22    688.75
         N          3.129            2.478     31.22    688.75

         Molecular C6 ( Ry / a.u.^6 ) =    437737.19


     gamma-point specific algorithms are used
     Message from routine setup :
     BEWARE: nonlinear core correction is not consistent with hybrid XC

     Subspace diagonalization in iterative solution of the eigenvalue problem:
     one sub-group per band group will be used
     scalapack distributed-memory algorithm (size of sub-group:  5*  5 procs)

     EXX: grid of k+q points same as grid of k-points
 
     Parallelization info
     --------------------
     sticks:   dense  smooth     PW     G-vecs:    dense   smooth      PW
     Min         121     121     29                 9978     9978    1245
     Max         124     124     32                 9992     9992    1260
     Sum        7841    7841   1949               638767   638767   79949
 


     bravais-lattice index     =            0
     lattice parameter (alat)  =      33.2346  a.u.
     unit-cell volume          =   36225.9364 (a.u.)^3
     number of atoms/cell      =           98
     number of atomic types    =            5
     number of electrons       =       391.00
     number of Kohn-Sham states=          245
     kinetic-energy cutoff     =      25.7300  Ry
     charge density cutoff     =     102.9200  Ry
     cutoff for Fock operator  =     102.9200  Ry
     convergence threshold     =      1.0E-03
     mixing beta               =       0.7000
     number of iterations used =            8  plain     mixing
     Exchange-correlation      = HSE ( 1  4 12  4 0 0)
     EXX-fraction              =        0.32
     Using LIBXC version       =    4   3   4

     celldm(1)=  33.234611  celldm(2)=   0.000000  celldm(3)=   0.000000
     celldm(4)=   0.000000  celldm(5)=   0.000000  celldm(6)=   0.000000

     crystal axes: (cart. coord. in units of alat)
               a(1) = (   1.001327  -0.000545   0.000000 )  
               a(2) = (  -0.501136   0.866902   0.000000 )  
               a(3) = (   0.000000   0.000000   1.137204 )  

     reciprocal axes: (cart. coord. in units 2 pi/alat)
               b(1) = (  0.998989  0.577492  0.000000 )  
               b(2) = (  0.000628  1.153896  0.000000 )  
               b(3) = (  0.000000  0.000000  0.879350 )  


     PseudoPot. # 1 for B  read from file:
     ./pseudo/B.pbe-n-kjpaw_psl.1.0.0.UPF
     MD5 check sum: 8c825a5969375aca5c2c6ad5945b3059
     Pseudo is Projector augmented-wave + core cor, Zval =  3.0
     Generated using "atomic" code by A. Dal Corso v.6.3
     Shape of augmentation charge: PSQ
     Using radial grid of 1059 points,  4 beta functions with: 
                l(1) =   0
                l(2) =   0
                l(3) =   1
                l(4) =   1
     Q(r) pseudized with 0 coefficients 


     PseudoPot. # 2 for N  read from file:
     ./pseudo/N.pbe-n-kjpaw_psl.1.0.0.UPF
     MD5 check sum: 14c48229446f9f2d411169a3abcbc3fa
     Pseudo is Projector augmented-wave + core cor, Zval =  5.0
     Generated using "atomic" code by A. Dal Corso v.6.3
     Shape of augmentation charge: PSQ
     Using radial grid of 1085 points,  4 beta functions with: 
                l(1) =   0
                l(2) =   0
                l(3) =   1
                l(4) =   1
     Q(r) pseudized with 0 coefficients 


     PseudoPot. # 3 for C  read from file:
     ./pseudo/C.pbe-n-kjpaw_psl.1.0.0.UPF
     MD5 check sum: 5f16ad9a65e90284d1d834d4ab3b0f7d
     Pseudo is Projector augmented-wave + core cor, Zval =  4.0
     Generated using "atomic" code by A. Dal Corso v.6.3
     Shape of augmentation charge: PSQ
     Using radial grid of 1073 points,  4 beta functions with: 
                l(1) =   0
                l(2) =   0
                l(3) =   1
                l(4) =   1
     Q(r) pseudized with 0 coefficients 


     PseudoPot. # 4 for C  read from file:
     ./pseudo/C.pbe-n-kjpaw_psl.1.0.0.UPF
     MD5 check sum: 5f16ad9a65e90284d1d834d4ab3b0f7d
     Pseudo is Projector augmented-wave + core cor, Zval =  4.0
     Generated using "atomic" code by A. Dal Corso v.6.3
     Shape of augmentation charge: PSQ
     Using radial grid of 1073 points,  4 beta functions with: 
                l(1) =   0
                l(2) =   0
                l(3) =   1
                l(4) =   1
     Q(r) pseudized with 0 coefficients 


     PseudoPot. # 5 for C  read from file:
     ./pseudo/C.pbe-n-kjpaw_psl.1.0.0.UPF
     MD5 check sum: 5f16ad9a65e90284d1d834d4ab3b0f7d
     Pseudo is Projector augmented-wave + core cor, Zval =  4.0
     Generated using "atomic" code by A. Dal Corso v.6.3
     Shape of augmentation charge: PSQ
     Using radial grid of 1073 points,  4 beta functions with: 
                l(1) =   0
                l(2) =   0
                l(3) =   1
                l(4) =   1
     Q(r) pseudized with 0 coefficients 


     atomic species   valence    mass     pseudopotential
        B              3.00    10.00000     B ( 1.00)
        N              5.00    14.00000     N ( 1.00)
        C1             4.00    12.00000     C ( 1.00)
        C2             4.00    12.00000     C ( 1.00)
        C3             4.00    12.00000     C ( 1.00)

     Starting magnetic structure 
     atomic species   magnetization
        B            0.000
        N            0.000
        C1           1.000
        C2           0.000
        C3           0.000

     No symmetry found



   Cartesian axes

     site n.     atom                  positions (alat units)
         1           B   tau(   1) = (  -0.0000620   0.0821347   0.5686018  )
         2           B   tau(   2) = (  -0.0715702   0.2061678   0.5686018  )
         3           B   tau(   3) = (  -0.1434240   0.3303187   0.5686018  )
         4           B   tau(   4) = (  -0.2152690   0.4540964   0.5686018  )
         5           B   tau(   5) = (  -0.2865867   0.5779346   0.5686018  )
         6           B   tau(   6) = (  -0.3579219   0.7018726   0.5686018  )
         7           B   tau(   7) = (  -0.4295310   0.8255612   0.5686018  )
         8           B   tau(   8) = (   0.1429495   0.0818360   0.5686018  )
         9           B   tau(   9) = (   0.0710773   0.2052376   0.5686018  )
        10           B   tau(  10) = (  -0.0001644   0.3300031   0.5686018  )
        11           B   tau(  11) = (  -0.0730097   0.4544232   0.5686018  )
        12           B   tau(  12) = (  -0.1445648   0.5781495   0.5686018  )
        13           B   tau(  13) = (  -0.2153234   0.7018882   0.5686018  )
        14           B   tau(  14) = (  -0.2866090   0.8253900   0.5686018  )
        15           B   tau(  15) = (   0.2863986   0.0818235   0.5686018  )
        16           B   tau(  16) = (   0.2150571   0.2046774   0.5686018  )
        17           B   tau(  17) = (   0.1431721   0.3268550   0.5686018  )
        18           B   tau(  18) = (   0.0689617   0.4566100   0.5686018  )
        19           B   tau(  19) = (  -0.0029023   0.5792469   0.5686018  )
        20           B   tau(  20) = (  -0.0727832   0.7024789   0.5686018  )
        21           B   tau(  21) = (  -0.1436080   0.8255809   0.5686018  )
        22           B   tau(  22) = (   0.4292684   0.0822333   0.5686018  )
        23           B   tau(  23) = (   0.3578670   0.2059405   0.5686018  )
        24           B   tau(  24) = (   0.2863132   0.3298675   0.5686018  )
        25           C2  tau(  25) = (   0.2166973   0.4524605   0.5686018  )
        26           B   tau(  26) = (   0.1392366   0.5783294   0.5686018  )
        27           B   tau(  27) = (   0.0701445   0.7023736   0.5686018  )
        28           B   tau(  28) = (  -0.0007022   0.8257372   0.5686018  )
        29           B   tau(  29) = (   0.5721417   0.0821596   0.5686018  )
        30           B   tau(  30) = (   0.5008147   0.2059270   0.5686018  )
        31           B   tau(  31) = (   0.4293663   0.3296767   0.5686018  )
        32           B   tau(  32) = (   0.3576745   0.4534690   0.5686018  )
        33           B   tau(  33) = (   0.2887125   0.5789390   0.5686018  )
        34           B   tau(  34) = (   0.2143180   0.7014980   0.5686018  )
        35           B   tau(  35) = (   0.1424149   0.8254066   0.5686018  )
        36           B   tau(  36) = (   0.7152442   0.0820701   0.5686018  )
        37           B   tau(  37) = (   0.6436927   0.2059353   0.5686018  )
        38           B   tau(  38) = (   0.5722610   0.3296754   0.5686018  )
        39           B   tau(  39) = (   0.5007753   0.4534651   0.5686018  )
        40           B   tau(  40) = (   0.4304640   0.5777736   0.5686018  )
        41           B   tau(  41) = (   0.3579890   0.7021836   0.5686018  )
        42           B   tau(  42) = (   0.2858597   0.8252548   0.5686018  )
        43           B   tau(  43) = (   0.8584207   0.0819619   0.5686018  )
        44           B   tau(  44) = (   0.7867389   0.2059024   0.5686018  )
        45           B   tau(  45) = (   0.7151101   0.3297880   0.5686018  )
        46           B   tau(  46) = (   0.6436096   0.4534830   0.5686018  )
        47           B   tau(  47) = (   0.5725294   0.5774168   0.5686018  )
        48           B   tau(  48) = (   0.5007940   0.7016411   0.5686018  )
        49           B   tau(  49) = (   0.4290296   0.8253434   0.5686018  )
        50           N   tau(  50) = (   0.0714365   0.0409822   0.5686018  )
        51           N   tau(  51) = (  -0.0003432   0.1644853   0.5686018  )
        52           N   tau(  52) = (  -0.0716087   0.2889805   0.5686018  )
        53           N   tau(  53) = (  -0.1439018   0.4127634   0.5686018  )
        54           N   tau(  54) = (  -0.2155326   0.5365665   0.5686018  )
        55           N   tau(  55) = (  -0.2866477   0.6605148   0.5686018  )
        56           N   tau(  56) = (  -0.3580811   0.7843095   0.5686018  )
        57           N   tau(  57) = (   0.2146074   0.0408862   0.5686018  )
        58           N   tau(  58) = (   0.1429481   0.1642443   0.5686018  )
        59           N   tau(  59) = (   0.0709792   0.2875115   0.5686018  )
        60           N   tau(  60) = (  -0.0009374   0.4132976   0.5686018  )
        61           N   tau(  61) = (  -0.0737097   0.5368846   0.5686018  )
        62           N   tau(  62) = (  -0.1441045   0.6607699   0.5686018  )
        63           N   tau(  63) = (  -0.2151551   0.7843436   0.5686018  )
        64           N   tau(  64) = (   0.3578322   0.0409589   0.5686018  )
        65           N   tau(  65) = (   0.2866221   0.1640582   0.5686018  )
        66           N   tau(  66) = (   0.2150504   0.2867651   0.5686018  )
        67           C1  tau(  67) = (   0.1456438   0.4134848   0.5686018  )
        68           N   tau(  68) = (   0.0670686   0.5388491   0.5686018  )
        69           N   tau(  69) = (  -0.0016194   0.6617491   0.5686018  )
        70           N   tau(  70) = (  -0.0722552   0.7847303   0.5686018  )
        71           N   tau(  71) = (   0.5006782   0.0411548   0.5686018  )
        72           N   tau(  72) = (   0.4293064   0.1647684   0.5686018  )
        73           N   tau(  73) = (   0.3578039   0.2886261   0.5686018  )
        74           N   tau(  74) = (   0.2864208   0.4122064   0.5686018  )
        75           C3  tau(  75) = (   0.2149250   0.5334844   0.5686018  )
        76           N   tau(  76) = (   0.1417964   0.6605201   0.5686018  )
        77           N   tau(  77) = (   0.0707768   0.7845980   0.5686018  )
        78           N   tau(  78) = (   0.6437073   0.0408943   0.5686018  )
        79           N   tau(  79) = (   0.5722755   0.1646379   0.5686018  )
        80           N   tau(  80) = (   0.5008567   0.2884018   0.5686018  )
        81           N   tau(  81) = (   0.4291359   0.4121769   0.5686018  )
        82           N   tau(  82) = (   0.3593709   0.5367355   0.5686018  )
        83           N   tau(  83) = (   0.2866887   0.6611317   0.5686018  )
        84           N   tau(  84) = (   0.2141225   0.7838820   0.5686018  )
        85           N   tau(  85) = (   0.7868216   0.0408124   0.5686018  )
        86           N   tau(  86) = (   0.7152443   0.1646249   0.5686018  )
        87           N   tau(  87) = (   0.6437488   0.2884332   0.5686018  )
        88           N   tau(  88) = (   0.5721511   0.4121827   0.5686018  )
        89           N   tau(  89) = (   0.5014239   0.5361060   0.5686018  )
        90           N   tau(  90) = (   0.4294257   0.6604383   0.5686018  )
        91           N   tau(  91) = (   0.3575713   0.7844118   0.5686018  )
        92           N   tau(  92) = (   0.9298489   0.0407229   0.5686018  )
        93           N   tau(  93) = (   0.8582578   0.1645435   0.5686018  )
        94           N   tau(  94) = (   0.7866298   0.2884430   0.5686018  )
        95           N   tau(  95) = (   0.7148895   0.4121795   0.5686018  )
        96           N   tau(  96) = (   0.6436360   0.5359857   0.5686018  )
        97           N   tau(  97) = (   0.5720866   0.6600585   0.5686018  )
        98           N   tau(  98) = (   0.5004180   0.7840002   0.5686018  )

     number of k points=     1
                       cart. coord. in units 2pi/alat
        k(    1) = (   0.0000000   0.0000000   0.0000000), wk =   1.0000000

     Dense  grid:   319384 G-vectors     FFT dimensions: ( 108, 108, 125)

     Occupations read from input 

      Spin-up

        1.0000   1.0000   1.0000   1.0000   1.0000   1.0000   1.0000   1.0000
        1.0000   1.0000   1.0000   1.0000   1.0000   1.0000   1.0000   1.0000
        1.0000   1.0000   1.0000   1.0000   1.0000   1.0000   1.0000   1.0000
        1.0000   1.0000   1.0000   1.0000   1.0000   1.0000   1.0000   1.0000
        1.0000   1.0000   1.0000   1.0000   1.0000   1.0000   1.0000   1.0000
        1.0000   1.0000   1.0000   1.0000   1.0000   1.0000   1.0000   1.0000
        1.0000   1.0000   1.0000   1.0000   1.0000   1.0000   1.0000   1.0000
        1.0000   1.0000   1.0000   1.0000   1.0000   1.0000   1.0000   1.0000
        1.0000   1.0000   1.0000   1.0000   1.0000   1.0000   1.0000   1.0000
        1.0000   1.0000   1.0000   1.0000   1.0000   1.0000   1.0000   1.0000
        1.0000   1.0000   1.0000   1.0000   1.0000   1.0000   1.0000   1.0000
        1.0000   1.0000   1.0000   1.0000   1.0000   1.0000   1.0000   1.0000
        1.0000   1.0000   1.0000   1.0000   1.0000   1.0000   1.0000   1.0000
        1.0000   1.0000   1.0000   1.0000   1.0000   1.0000   1.0000   1.0000
        1.0000   1.0000   1.0000   1.0000   1.0000   1.0000   1.0000   1.0000
        1.0000   1.0000   1.0000   1.0000   1.0000   1.0000   1.0000   1.0000
        1.0000   1.0000   1.0000   1.0000   1.0000   1.0000   1.0000   1.0000
        1.0000   1.0000   1.0000   1.0000   1.0000   1.0000   1.0000   1.0000
        1.0000   1.0000   1.0000   1.0000   1.0000   1.0000   1.0000   1.0000
        1.0000   1.0000   1.0000   1.0000   1.0000   1.0000   1.0000   1.0000
        1.0000   1.0000   1.0000   1.0000   1.0000   1.0000   1.0000   1.0000
        1.0000   1.0000   1.0000   1.0000   1.0000   1.0000   1.0000   1.0000
        1.0000   1.0000   1.0000   1.0000   1.0000   1.0000   1.0000   1.0000
        1.0000   1.0000   1.0000   1.0000   1.0000   1.0000   1.0000   1.0000
        1.0000   1.0000   1.0000   0.0000   1.0000   0.0000   0.0000   0.0000
        0.0000   0.0000   0.0000   0.0000   0.0000   0.0000   0.0000   0.0000
        0.0000   0.0000   0.0000   0.0000   0.0000   0.0000   0.0000   0.0000
        0.0000   0.0000   0.0000   0.0000   0.0000   0.0000   0.0000   0.0000
        0.0000   0.0000   0.0000   0.0000   0.0000   0.0000   0.0000   0.0000
        0.0000   0.0000   0.0000   0.0000   0.0000   0.0000   0.0000   0.0000
        0.0000   0.0000   0.0000   0.0000   0.0000

      Spin-down

        1.0000   1.0000   1.0000   1.0000   1.0000   1.0000   1.0000   1.0000
        1.0000   1.0000   1.0000   1.0000   1.0000   1.0000   1.0000   1.0000
        1.0000   1.0000   1.0000   1.0000   1.0000   1.0000   1.0000   1.0000
        1.0000   1.0000   1.0000   1.0000   1.0000   1.0000   1.0000   1.0000
        1.0000   1.0000   1.0000   1.0000   1.0000   1.0000   1.0000   1.0000
        1.0000   1.0000   1.0000   1.0000   1.0000   1.0000   1.0000   1.0000
        1.0000   1.0000   1.0000   1.0000   1.0000   1.0000   1.0000   1.0000
        1.0000   1.0000   1.0000   1.0000   1.0000   1.0000   1.0000   1.0000
        1.0000   1.0000   1.0000   1.0000   1.0000   1.0000   1.0000   1.0000
        1.0000   1.0000   1.0000   1.0000   1.0000   1.0000   1.0000   1.0000
        1.0000   1.0000   1.0000   1.0000   1.0000   1.0000   1.0000   1.0000
        1.0000   1.0000   1.0000   1.0000   1.0000   1.0000   1.0000   1.0000
        1.0000   1.0000   1.0000   1.0000   1.0000   1.0000   1.0000   1.0000
        1.0000   1.0000   1.0000   1.0000   1.0000   1.0000   1.0000   1.0000
        1.0000   1.0000   1.0000   1.0000   1.0000   1.0000   1.0000   1.0000
        1.0000   1.0000   1.0000   1.0000   1.0000   1.0000   1.0000   1.0000
        1.0000   1.0000   1.0000   1.0000   1.0000   1.0000   1.0000   1.0000
        1.0000   1.0000   1.0000   1.0000   1.0000   1.0000   1.0000   1.0000
        1.0000   1.0000   1.0000   1.0000   1.0000   1.0000   1.0000   1.0000
        1.0000   1.0000   1.0000   1.0000   1.0000   1.0000   1.0000   1.0000
        1.0000   1.0000   1.0000   1.0000   1.0000   1.0000   1.0000   1.0000
        1.0000   1.0000   1.0000   1.0000   1.0000   1.0000   1.0000   1.0000
        1.0000   1.0000   1.0000   1.0000   1.0000   1.0000   1.0000   1.0000
        1.0000   1.0000   1.0000   1.0000   1.0000   1.0000   1.0000   1.0000
        1.0000   1.0000   1.0000   0.0000   0.0000   0.0000   0.0000   0.0000
        0.0000   0.0000   0.0000   0.0000   0.0000   0.0000   0.0000   0.0000
        0.0000   0.0000   0.0000   0.0000   0.0000   0.0000   0.0000   0.0000
        0.0000   0.0000   0.0000   0.0000   0.0000   0.0000   0.0000   0.0000
        0.0000   0.0000   0.0000   0.0000   0.0000   0.0000   0.0000   0.0000
        0.0000   0.0000   0.0000   0.0000   0.0000   0.0000   0.0000   0.0000
        0.0000   0.0000   0.0000   0.0000   0.0000

     Estimated max dynamical RAM per process >     157.13 MB

     Estimated total dynamical RAM >       9.82 GB
     Generating pointlists ...
     new r_m :   0.0333 (alat units)  1.1076 (a.u.) for type    1
     new r_m :   0.0332 (alat units)  1.1037 (a.u.) for type    2
     new r_m :   0.0334 (alat units)  1.1110 (a.u.) for type    3
     new r_m :   0.0332 (alat units)  1.1037 (a.u.) for type    4
     new r_m :   0.0334 (alat units)  1.1110 (a.u.) for type    5

     Check: negative core charge=   -0.000147

     Initial potential from superposition of free atoms

     starting charge  390.98597, renormalised to  391.00000

     negative rho (up, down):  7.624E-01 1.213E-03
     Starting wfcs are  392 randomized atomic wfcs

     total cpu time spent up to now is        4.6 secs

     Self-consistent Calculation

     iteration #  1     ecut=    25.73 Ry     beta= 0.70
     CG style diagonalization
     ethr =  1.00E-02,  avg # of iterations =  3.1

     negative rho (up, down):  2.375E+00 8.353E-03

     total cpu time spent up to now is       23.3 secs

     total energy              =   -1931.99431713 Ry
     Harris-Foulkes estimate   =   -1942.50993422 Ry
     estimated scf accuracy    <      17.06231082 Ry

     total magnetization       =     1.00 Bohr mag/cell
     absolute magnetization    =     2.23 Bohr mag/cell

     iteration #  2     ecut=    25.73 Ry     beta= 0.70
     CG style diagonalization
     ethr =  4.36E-03,  avg # of iterations =  4.0

     negative rho (up, down):  2.682E+00 7.287E-03

     total cpu time spent up to now is       40.6 secs

     total energy              =   -1935.41267784 Ry
     Harris-Foulkes estimate   =   -1940.21839407 Ry
     estimated scf accuracy    <       9.27025803 Ry

     total magnetization       =     1.00 Bohr mag/cell
     absolute magnetization    =     2.71 Bohr mag/cell

     iteration #  3     ecut=    25.73 Ry     beta= 0.70
     CG style diagonalization
     ethr =  2.37E-03,  avg # of iterations =  3.9

     negative rho (up, down):  2.807E+00 1.844E-02

     total cpu time spent up to now is       57.1 secs

     total energy              =   -1937.28081184 Ry
     Harris-Foulkes estimate   =   -1937.96159041 Ry
     estimated scf accuracy    <       1.30227628 Ry

     total magnetization       =     1.00 Bohr mag/cell
     absolute magnetization    =     1.89 Bohr mag/cell

     iteration #  4     ecut=    25.73 Ry     beta= 0.70
     CG style diagonalization
     c_bands:  2 eigenvalues not converged
     ethr =  3.33E-04,  avg # of iterations =  4.3

     negative rho (up, down):  3.047E+00 1.887E-02

     total cpu time spent up to now is       76.2 secs

     total energy              =   -1937.44310748 Ry
     Harris-Foulkes estimate   =   -1937.83430288 Ry
     estimated scf accuracy    <       1.16479884 Ry

     total magnetization       =     1.00 Bohr mag/cell
     absolute magnetization    =     2.95 Bohr mag/cell

     iteration #  5     ecut=    25.73 Ry     beta= 0.70
     CG style diagonalization
     c_bands:  1 eigenvalues not converged
     ethr =  2.98E-04,  avg # of iterations =  3.3

     negative rho (up, down):  3.039E+00 2.610E-02

     total cpu time spent up to now is       89.6 secs

     total energy              =   -1937.67276246 Ry
     Harris-Foulkes estimate   =   -1937.71223125 Ry
     estimated scf accuracy    <       0.19317138 Ry

     total magnetization       =     1.00 Bohr mag/cell
     absolute magnetization    =     1.70 Bohr mag/cell

     iteration #  6     ecut=    25.73 Ry     beta= 0.70
     CG style diagonalization
     c_bands:  3 eigenvalues not converged
     c_bands:  1 eigenvalues not converged
     ethr =  4.94E-05,  avg # of iterations =  3.5

     negative rho (up, down):  3.027E+00 3.499E-02

     total cpu time spent up to now is      104.1 secs

     total energy              =   -1937.65806337 Ry
     Harris-Foulkes estimate   =   -1937.68310719 Ry
     estimated scf accuracy    <       0.09048670 Ry

     total magnetization       =     1.00 Bohr mag/cell
     absolute magnetization    =     1.62 Bohr mag/cell

     iteration #  7     ecut=    25.73 Ry     beta= 0.70
     CG style diagonalization
     c_bands:  2 eigenvalues not converged
     c_bands:  3 eigenvalues not converged
     ethr =  2.31E-05,  avg # of iterations =  3.5

     negative rho (up, down):  3.068E+00 3.111E-02

     total cpu time spent up to now is      118.7 secs

     total energy              =   -1937.67154879 Ry
     Harris-Foulkes estimate   =   -1937.67974653 Ry
     estimated scf accuracy    <       0.08483744 Ry

     total magnetization       =     1.00 Bohr mag/cell
     absolute magnetization    =     1.33 Bohr mag/cell

     iteration #  8     ecut=    25.73 Ry     beta= 0.70
     CG style diagonalization
     ethr =  2.17E-05,  avg # of iterations =  3.1

     negative rho (up, down):  3.106E+00 2.551E-02

     total cpu time spent up to now is      131.0 secs

     total energy              =   -1937.66660167 Ry
     Harris-Foulkes estimate   =   -1937.67332666 Ry
     estimated scf accuracy    <       0.05740068 Ry

     total magnetization       =     1.00 Bohr mag/cell
     absolute magnetization    =     1.33 Bohr mag/cell

     iteration #  9     ecut=    25.73 Ry     beta= 0.70
     CG style diagonalization
     c_bands:  1 eigenvalues not converged
     c_bands:  1 eigenvalues not converged
     ethr =  1.47E-05,  avg # of iterations =  3.1

     negative rho (up, down):  3.112E+00 2.575E-02

     total cpu time spent up to now is      143.3 secs

     total energy              =   -1937.67427773 Ry
     Harris-Foulkes estimate   =   -1937.67793652 Ry
     estimated scf accuracy    <       0.03992621 Ry

     total magnetization       =     1.00 Bohr mag/cell
     absolute magnetization    =     1.46 Bohr mag/cell

     iteration # 10     ecut=    25.73 Ry     beta= 0.70
     CG style diagonalization
     ethr =  1.02E-05,  avg # of iterations =  3.0

     negative rho (up, down):  3.097E+00 2.803E-02

     total cpu time spent up to now is      155.3 secs

     total energy              =   -1937.67325432 Ry
     Harris-Foulkes estimate   =   -1937.67539578 Ry
     estimated scf accuracy    <       0.02671127 Ry

     total magnetization       =     1.00 Bohr mag/cell
     absolute magnetization    =     1.42 Bohr mag/cell

     iteration # 11     ecut=    25.73 Ry     beta= 0.70
     CG style diagonalization
     c_bands:  1 eigenvalues not converged
     c_bands:  1 eigenvalues not converged
     ethr =  6.83E-06,  avg # of iterations =  3.1

     negative rho (up, down):  3.078E+00 3.007E-02

     total cpu time spent up to now is      167.6 secs

     total energy              =   -1937.67239554 Ry
     Harris-Foulkes estimate   =   -1937.67363918 Ry
     estimated scf accuracy    <       0.01795794 Ry

     total magnetization       =     1.00 Bohr mag/cell
     absolute magnetization    =     1.36 Bohr mag/cell

     iteration # 12     ecut=    25.73 Ry     beta= 0.70
     CG style diagonalization
     c_bands:  1 eigenvalues not converged
     c_bands:  2 eigenvalues not converged
     ethr =  4.59E-06,  avg # of iterations =  3.2

     negative rho (up, down):  3.094E+00 2.842E-02

     total cpu time spent up to now is      180.6 secs

     total energy              =   -1937.67381820 Ry
     Harris-Foulkes estimate   =   -1937.67530125 Ry
     estimated scf accuracy    <       0.05664599 Ry

     total magnetization       =     1.00 Bohr mag/cell
     absolute magnetization    =     1.23 Bohr mag/cell

     iteration # 13     ecut=    25.73 Ry     beta= 0.70
     CG style diagonalization
     ethr =  4.59E-06,  avg # of iterations =  3.0

     negative rho (up, down):  3.109E+00 2.633E-02

     total cpu time spent up to now is      192.4 secs

     total energy              =   -1937.67159805 Ry
     Harris-Foulkes estimate   =   -1937.67392458 Ry
     estimated scf accuracy    <       0.05116409 Ry

     total magnetization       =     1.00 Bohr mag/cell
     absolute magnetization    =     1.21 Bohr mag/cell

     iteration # 14     ecut=    25.73 Ry     beta= 0.70
     CG style diagonalization
     ethr =  4.59E-06,  avg # of iterations =  3.0

     negative rho (up, down):  3.102E+00 2.730E-02

     total cpu time spent up to now is      204.2 secs

     total energy              =   -1937.67443538 Ry
     Harris-Foulkes estimate   =   -1937.67508898 Ry
     estimated scf accuracy    <       0.02132988 Ry

     total magnetization       =     1.00 Bohr mag/cell
     absolute magnetization    =     1.28 Bohr mag/cell

     iteration # 15     ecut=    25.73 Ry     beta= 0.70
     CG style diagonalization
     ethr =  4.59E-06,  avg # of iterations =  3.0

     negative rho (up, down):  3.092E+00 2.851E-02

     total cpu time spent up to now is      215.9 secs

     total energy              =   -1937.67366333 Ry
     Harris-Foulkes estimate   =   -1937.67446928 Ry
     estimated scf accuracy    <       0.01878974 Ry

     total magnetization       =     1.00 Bohr mag/cell
     absolute magnetization    =     1.27 Bohr mag/cell

     iteration # 16     ecut=    25.73 Ry     beta= 0.70
     CG style diagonalization
     ethr =  4.59E-06,  avg # of iterations =  3.0

     negative rho (up, down):  3.097E+00 2.786E-02

     total cpu time spent up to now is      227.8 secs

     total energy              =   -1937.67343419 Ry
     Harris-Foulkes estimate   =   -1937.67401338 Ry
     estimated scf accuracy    <       0.05022757 Ry

     total magnetization       =     1.00 Bohr mag/cell
     absolute magnetization    =     1.17 Bohr mag/cell

     iteration # 17     ecut=    25.73 Ry     beta= 0.70
     CG style diagonalization
     ethr =  4.59E-06,  avg # of iterations =  3.0

     negative rho (up, down):  3.096E+00 2.801E-02

     total cpu time spent up to now is      239.6 secs

     total energy              =   -1937.67409052 Ry
     Harris-Foulkes estimate   =   -1937.67414946 Ry
     estimated scf accuracy    <       0.01659734 Ry

     total magnetization       =     1.00 Bohr mag/cell
     absolute magnetization    =     1.21 Bohr mag/cell

     iteration # 18     ecut=    25.73 Ry     beta= 0.70
     CG style diagonalization
     ethr =  4.24E-06,  avg # of iterations =  3.0

     negative rho (up, down):  3.094E+00 2.823E-02

     total cpu time spent up to now is      251.4 secs

     total energy              =   -1937.67399095 Ry
     Harris-Foulkes estimate   =   -1937.67410663 Ry
     estimated scf accuracy    <       0.01624043 Ry

     total magnetization       =     1.00 Bohr mag/cell
     absolute magnetization    =     1.20 Bohr mag/cell

     iteration # 19     ecut=    25.73 Ry     beta= 0.70
     CG style diagonalization
     ethr =  4.15E-06,  avg # of iterations =  3.0

     negative rho (up, down):  3.089E+00 2.889E-02

     total cpu time spent up to now is      263.2 secs

     total energy              =   -1937.67366008 Ry
     Harris-Foulkes estimate   =   -1937.67399534 Ry
     estimated scf accuracy    <       0.01569581 Ry

     total magnetization       =     1.00 Bohr mag/cell
     absolute magnetization    =     1.19 Bohr mag/cell

     iteration # 20     ecut=    25.73 Ry     beta= 0.70
     CG style diagonalization
     ethr =  4.01E-06,  avg # of iterations =  3.0

     negative rho (up, down):  3.091E+00 2.866E-02

     total cpu time spent up to now is      275.0 secs

     total energy              =   -1937.67417306 Ry
     Harris-Foulkes estimate   =   -1937.67439301 Ry
     estimated scf accuracy    <       0.05192663 Ry

     total magnetization       =     1.00 Bohr mag/cell
     absolute magnetization    =     1.13 Bohr mag/cell

     iteration # 21     ecut=    25.73 Ry     beta= 0.70
     CG style diagonalization
     ethr =  4.01E-06,  avg # of iterations =  3.0

     negative rho (up, down):  3.096E+00 2.795E-02

     total cpu time spent up to now is      286.8 secs

     total energy              =   -1937.67348361 Ry
     Harris-Foulkes estimate   =   -1937.67418043 Ry
     estimated scf accuracy    <       0.05101560 Ry

     total magnetization       =     1.00 Bohr mag/cell
     absolute magnetization    =     1.13 Bohr mag/cell

     iteration # 22     ecut=    25.73 Ry     beta= 0.70
     CG style diagonalization
     ethr =  4.01E-06,  avg # of iterations =  3.0

     negative rho (up, down):  3.094E+00 2.822E-02

     total cpu time spent up to now is      298.6 secs

     total energy              =   -1937.67406655 Ry
     Harris-Foulkes estimate   =   -1937.67423153 Ry
     estimated scf accuracy    <       0.01654129 Ry

     total magnetization       =     1.00 Bohr mag/cell
     absolute magnetization    =     1.16 Bohr mag/cell

     iteration # 23     ecut=    25.73 Ry     beta= 0.70
     CG style diagonalization
     ethr =  4.01E-06,  avg # of iterations =  3.0

     negative rho (up, down):  3.092E+00 2.847E-02

     total cpu time spent up to now is      310.3 secs

     total energy              =   -1937.67392159 Ry
     Harris-Foulkes estimate   =   -1937.67406972 Ry
     estimated scf accuracy    <       0.01585630 Ry

     total magnetization       =     1.00 Bohr mag/cell
     absolute magnetization    =     1.16 Bohr mag/cell

     iteration # 24     ecut=    25.73 Ry     beta= 0.70
     CG style diagonalization
     ethr =  4.01E-06,  avg # of iterations =  3.0

     negative rho (up, down):  3.094E+00 2.823E-02

     total cpu time spent up to now is      322.2 secs

     total energy              =   -1937.67381284 Ry
     Harris-Foulkes estimate   =   -1937.67401011 Ry
     estimated scf accuracy    <       0.05004189 Ry

     total magnetization       =     1.00 Bohr mag/cell
     absolute magnetization    =     1.13 Bohr mag/cell

     iteration # 25     ecut=    25.73 Ry     beta= 0.70
     CG style diagonalization
     ethr =  4.01E-06,  avg # of iterations =  3.0

     negative rho (up, down):  3.093E+00 2.833E-02

     total cpu time spent up to now is      333.9 secs

     total energy              =   -1937.67399544 Ry
     Harris-Foulkes estimate   =   -1937.67404691 Ry
     estimated scf accuracy    <       0.01566560 Ry

     total magnetization       =     1.00 Bohr mag/cell
     absolute magnetization    =     1.15 Bohr mag/cell

     iteration # 26     ecut=    25.73 Ry     beta= 0.70
     CG style diagonalization
     ethr =  4.01E-06,  avg # of iterations =  3.0

     negative rho (up, down):  3.092E+00 2.843E-02

     total cpu time spent up to now is      345.8 secs

     total energy              =   -1937.67394682 Ry
     Harris-Foulkes estimate   =   -1937.67399730 Ry
     estimated scf accuracy    <       0.01543728 Ry

     total magnetization       =     1.00 Bohr mag/cell
     absolute magnetization    =     1.15 Bohr mag/cell

     iteration # 27     ecut=    25.73 Ry     beta= 0.70
     CG style diagonalization
     ethr =  3.95E-06,  avg # of iterations =  3.0

     negative rho (up, down):  3.093E+00 2.836E-02

     total cpu time spent up to now is      357.5 secs

     total energy              =   -1937.67390965 Ry
     Harris-Foulkes estimate   =   -1937.67398237 Ry
     estimated scf accuracy    <       0.04997705 Ry

     total magnetization       =     1.00 Bohr mag/cell
     absolute magnetization    =     1.13 Bohr mag/cell

     iteration # 28     ecut=    25.73 Ry     beta= 0.70
     CG style diagonalization
     ethr =  3.95E-06,  avg # of iterations =  3.0

     negative rho (up, down):  3.093E+00 2.838E-02

     total cpu time spent up to now is      369.3 secs

     total energy              =   -1937.67398149 Ry
     Harris-Foulkes estimate   =   -1937.67399154 Ry
     estimated scf accuracy    <       0.01537126 Ry

     total magnetization       =     1.00 Bohr mag/cell
     absolute magnetization    =     1.15 Bohr mag/cell

     iteration # 29     ecut=    25.73 Ry     beta= 0.70
     CG style diagonalization
     ethr =  3.93E-06,  avg # of iterations =  3.0

     negative rho (up, down):  3.092E+00 2.841E-02

     total cpu time spent up to now is      381.2 secs

     total energy              =   -1937.67396391 Ry
     Harris-Foulkes estimate   =   -1937.67398158 Ry
     estimated scf accuracy    <       0.01529480 Ry

     total magnetization       =     1.00 Bohr mag/cell
     absolute magnetization    =     1.15 Bohr mag/cell

     iteration # 30     ecut=    25.73 Ry     beta= 0.70
     CG style diagonalization
     ethr =  3.91E-06,  avg # of iterations =  3.0

     negative rho (up, down):  3.092E+00 2.844E-02

     total cpu time spent up to now is      393.1 secs

     total energy              =   -1937.67394006 Ry
     Harris-Foulkes estimate   =   -1937.67396397 Ry
     estimated scf accuracy    <       0.01524448 Ry

     total magnetization       =     1.00 Bohr mag/cell
     absolute magnetization    =     1.15 Bohr mag/cell

     iteration # 31     ecut=    25.73 Ry     beta= 0.70
     CG style diagonalization
     ethr =  3.90E-06,  avg # of iterations =  3.0

     negative rho (up, down):  3.092E+00 2.845E-02

     total cpu time spent up to now is      404.9 secs

     total energy              =   -1937.67399521 Ry
     Harris-Foulkes estimate   =   -1937.67399427 Ry
     estimated scf accuracy    <       0.05010653 Ry

     total magnetization       =     1.00 Bohr mag/cell
     absolute magnetization    =     1.13 Bohr mag/cell

     iteration # 32     ecut=    25.73 Ry     beta= 0.70
     CG style diagonalization
     ethr =  3.90E-06,  avg # of iterations =  3.0

     negative rho (up, down):  3.092E+00 2.843E-02

     total cpu time spent up to now is      416.6 secs

     total energy              =   -1937.67397804 Ry
     Harris-Foulkes estimate   =   -1937.67399525 Ry
     estimated scf accuracy    <       0.05012317 Ry

     total magnetization       =     1.00 Bohr mag/cell
     absolute magnetization    =     1.13 Bohr mag/cell

     iteration # 33     ecut=    25.73 Ry     beta= 0.70
     CG style diagonalization
     ethr =  3.90E-06,  avg # of iterations =  3.0

     negative rho (up, down):  3.092E+00 2.841E-02

     total cpu time spent up to now is      428.4 secs

     total energy              =   -1937.67395088 Ry
     Harris-Foulkes estimate   =   -1937.67397807 Ry
     estimated scf accuracy    <       0.05005293 Ry

     total magnetization       =     1.00 Bohr mag/cell
     absolute magnetization    =     1.13 Bohr mag/cell

     iteration # 34     ecut=    25.73 Ry     beta= 0.70
     CG style diagonalization
     ethr =  3.90E-06,  avg # of iterations =  3.0

     negative rho (up, down):  3.092E+00 2.842E-02

     total cpu time spent up to now is      440.2 secs

     total energy              =   -1937.67396214 Ry
     Harris-Foulkes estimate   =   -1937.67396536 Ry
     estimated scf accuracy    <       0.01521380 Ry

     total magnetization       =     1.00 Bohr mag/cell
     absolute magnetization    =     1.15 Bohr mag/cell

     iteration # 35     ecut=    25.73 Ry     beta= 0.70
     CG style diagonalization
     ethr =  3.89E-06,  avg # of iterations =  3.0

     negative rho (up, down):  3.092E+00 2.843E-02

     total cpu time spent up to now is      451.9 secs

     total energy              =   -1937.67395945 Ry
     Harris-Foulkes estimate   =   -1937.67396215 Ry
     estimated scf accuracy    <       0.01520071 Ry

     total magnetization       =     1.00 Bohr mag/cell
     absolute magnetization    =     1.15 Bohr mag/cell

     iteration # 36     ecut=    25.73 Ry     beta= 0.70
     CG style diagonalization
     ethr =  3.89E-06,  avg # of iterations =  3.0

     negative rho (up, down):  3.092E+00 2.842E-02

     total cpu time spent up to now is      463.7 secs

     total energy              =   -1937.67395891 Ry
     Harris-Foulkes estimate   =   -1937.67396138 Ry
     estimated scf accuracy    <       0.04996627 Ry

     total magnetization       =     1.00 Bohr mag/cell
     absolute magnetization    =     1.13 Bohr mag/cell

     iteration # 37     ecut=    25.73 Ry     beta= 0.70
     CG style diagonalization
     c_bands:  1 eigenvalues not converged
     ethr =  3.89E-06,  avg # of iterations =  3.0

     negative rho (up, down):  3.092E+00 2.842E-02

     total cpu time spent up to now is      475.7 secs

     total energy              =   -1937.67395961 Ry
     Harris-Foulkes estimate   =   -1937.67396113 Ry
     estimated scf accuracy    <       0.01521001 Ry

     total magnetization       =     1.00 Bohr mag/cell
     absolute magnetization    =     1.15 Bohr mag/cell

     iteration # 38     ecut=    25.73 Ry     beta= 0.70
     CG style diagonalization
     c_bands:  1 eigenvalues not converged
     ethr =  3.89E-06,  avg # of iterations =  3.0

     negative rho (up, down):  3.092E+00 2.843E-02

     total cpu time spent up to now is      487.7 secs

     total energy              =   -1937.67396544 Ry
     Harris-Foulkes estimate   =   -1937.67396085 Ry
     estimated scf accuracy    <       0.04988397 Ry

     total magnetization       =     1.00 Bohr mag/cell
     absolute magnetization    =     1.13 Bohr mag/cell

     iteration # 39     ecut=    25.73 Ry     beta= 0.70
     CG style diagonalization
     ethr =  3.89E-06,  avg # of iterations =  3.0

     negative rho (up, down):  3.092E+00 2.843E-02

     total cpu time spent up to now is      499.7 secs

     total energy              =   -1937.67396051 Ry
     Harris-Foulkes estimate   =   -1937.67396545 Ry
     estimated scf accuracy    <       0.04998386 Ry

     total magnetization       =     1.00 Bohr mag/cell
     absolute magnetization    =     1.13 Bohr mag/cell

     iteration # 40     ecut=    25.73 Ry     beta= 0.70
     CG style diagonalization
     ethr =  3.89E-06,  avg # of iterations =  3.0

     negative rho (up, down):  3.092E+00 2.842E-02

     total cpu time spent up to now is      511.5 secs

     total energy              =   -1937.67395999 Ry
     Harris-Foulkes estimate   =   -1937.67396052 Ry
     estimated scf accuracy    <       0.04849603 Ry

     total magnetization       =     1.00 Bohr mag/cell
     absolute magnetization    =     1.12 Bohr mag/cell

     iteration # 41     ecut=    25.73 Ry     beta= 0.70
     CG style diagonalization
     ethr =  3.89E-06,  avg # of iterations =  3.0

     negative rho (up, down):  3.092E+00 2.843E-02

     total cpu time spent up to now is      523.3 secs

     total energy              =   -1937.67395997 Ry
     Harris-Foulkes estimate   =   -1937.67396026 Ry
     estimated scf accuracy    <       0.01062071 Ry

     total magnetization       =     1.00 Bohr mag/cell
     absolute magnetization    =     1.14 Bohr mag/cell

     iteration # 42     ecut=    25.73 Ry     beta= 0.70
     CG style diagonalization
     ethr =  2.72E-06,  avg # of iterations =  3.0

     negative rho (up, down):  3.092E+00 2.842E-02

     total cpu time spent up to now is      535.1 secs

     total energy              =   -1937.67395909 Ry
     Harris-Foulkes estimate   =   -1937.67396051 Ry
     estimated scf accuracy    <       0.04838930 Ry

     total magnetization       =     1.00 Bohr mag/cell
     absolute magnetization    =     1.12 Bohr mag/cell

     iteration # 43     ecut=    25.73 Ry     beta= 0.70
     CG style diagonalization
     ethr =  2.72E-06,  avg # of iterations =  3.0

     negative rho (up, down):  3.092E+00 2.842E-02

     total cpu time spent up to now is      546.8 secs

     total energy              =   -1937.67396090 Ry
     Harris-Foulkes estimate   =   -1937.67396082 Ry
     estimated scf accuracy    <       0.01499789 Ry

     total magnetization       =     1.00 Bohr mag/cell
     absolute magnetization    =     1.15 Bohr mag/cell

     iteration # 44     ecut=    25.73 Ry     beta= 0.70
     CG style diagonalization
     ethr =  2.72E-06,  avg # of iterations =  3.0

     negative rho (up, down):  3.092E+00 2.842E-02

     total cpu time spent up to now is      558.6 secs

     total energy              =   -1937.67396070 Ry
     Harris-Foulkes estimate   =   -1937.67396090 Ry
     estimated scf accuracy    <       0.01487107 Ry

     total magnetization       =     1.00 Bohr mag/cell
     absolute magnetization    =     1.15 Bohr mag/cell

     iteration # 45     ecut=    25.73 Ry     beta= 0.70
     CG style diagonalization
     ethr =  2.72E-06,  avg # of iterations =  3.0

     negative rho (up, down):  3.092E+00 2.843E-02

     total cpu time spent up to now is      570.4 secs

     total energy              =   -1937.67396011 Ry
     Harris-Foulkes estimate   =   -1937.67396070 Ry
     estimated scf accuracy    <       0.01489513 Ry

     total magnetization       =     1.00 Bohr mag/cell
     absolute magnetization    =     1.15 Bohr mag/cell

     iteration # 46     ecut=    25.73 Ry     beta= 0.70
     CG style diagonalization
     ethr =  2.72E-06,  avg # of iterations =  3.0

     negative rho (up, down):  3.092E+00 2.843E-02

     total cpu time spent up to now is      582.2 secs

     total energy              =   -1937.67396064 Ry
     Harris-Foulkes estimate   =   -1937.67396034 Ry
     estimated scf accuracy    <       0.02751340 Ry

     total magnetization       =     1.00 Bohr mag/cell
     absolute magnetization    =     1.10 Bohr mag/cell

     iteration # 47     ecut=    25.73 Ry     beta= 0.70
     CG style diagonalization
     ethr =  2.72E-06,  avg # of iterations =  3.0

     negative rho (up, down):  3.092E+00 2.843E-02

     total cpu time spent up to now is      594.0 secs

     total energy              =   -1937.67395993 Ry
     Harris-Foulkes estimate   =   -1937.67396074 Ry
     estimated scf accuracy    <       0.04852096 Ry

     total magnetization       =     1.00 Bohr mag/cell
     absolute magnetization    =     1.12 Bohr mag/cell

     iteration # 48     ecut=    25.73 Ry     beta= 0.70
     CG style diagonalization
     ethr =  2.72E-06,  avg # of iterations =  3.0

     negative rho (up, down):  3.092E+00 2.842E-02

     total cpu time spent up to now is      605.8 secs

     total energy              =   -1937.67396032 Ry
     Harris-Foulkes estimate   =   -1937.67396031 Ry
     estimated scf accuracy    <       0.01017639 Ry

     total magnetization       =     1.00 Bohr mag/cell
     absolute magnetization    =     1.14 Bohr mag/cell

     iteration # 49     ecut=    25.73 Ry     beta= 0.70
     CG style diagonalization
     ethr =  2.60E-06,  avg # of iterations =  3.0

     negative rho (up, down):  3.092E+00 2.843E-02

     total cpu time spent up to now is      617.7 secs

     total energy              =   -1937.67396034 Ry
     Harris-Foulkes estimate   =   -1937.67396033 Ry
     estimated scf accuracy    <       0.01331406 Ry

     total magnetization       =     1.00 Bohr mag/cell
     absolute magnetization    =     1.15 Bohr mag/cell

     iteration # 50     ecut=    25.73 Ry     beta= 0.70
     CG style diagonalization
     ethr =  2.60E-06,  avg # of iterations =  3.0

     negative rho (up, down):  3.092E+00 2.843E-02

     total cpu time spent up to now is      629.7 secs

     total energy              =   -1937.67396025 Ry
     Harris-Foulkes estimate   =   -1937.67396034 Ry
     estimated scf accuracy    <       0.01134619 Ry

     total magnetization       =     1.00 Bohr mag/cell
     absolute magnetization    =     1.14 Bohr mag/cell

     iteration # 51     ecut=    25.73 Ry     beta= 0.70
     CG style diagonalization
     ethr =  2.60E-06,  avg # of iterations =  3.0

     negative rho (up, down):  3.092E+00 2.842E-02

     total cpu time spent up to now is      641.5 secs

     total energy              =   -1937.67396043 Ry
     Harris-Foulkes estimate   =   -1937.67396025 Ry
     estimated scf accuracy    <       0.00910527 Ry

     total magnetization       =     1.00 Bohr mag/cell
     absolute magnetization    =     1.13 Bohr mag/cell

     iteration # 52     ecut=    25.73 Ry     beta= 0.70
     CG style diagonalization
     ethr =  2.33E-06,  avg # of iterations =  3.0

     negative rho (up, down):  3.092E+00 2.843E-02

     total cpu time spent up to now is      653.3 secs

     total energy              =   -1937.67396055 Ry
     Harris-Foulkes estimate   =   -1937.67396046 Ry
     estimated scf accuracy    <       0.01416906 Ry

     total magnetization       =     1.00 Bohr mag/cell
     absolute magnetization    =     1.15 Bohr mag/cell

     iteration # 53     ecut=    25.73 Ry     beta= 0.70
     CG style diagonalization
     ethr =  2.33E-06,  avg # of iterations =  3.0

     negative rho (up, down):  3.092E+00 2.842E-02

     total cpu time spent up to now is      665.1 secs

     total energy              =   -1937.67396058 Ry
     Harris-Foulkes estimate   =   -1937.67396056 Ry
     estimated scf accuracy    <       0.01447816 Ry

     total magnetization       =     1.00 Bohr mag/cell
     absolute magnetization    =     1.15 Bohr mag/cell

     iteration # 54     ecut=    25.73 Ry     beta= 0.70
     CG style diagonalization
     ethr =  2.33E-06,  avg # of iterations =  3.0

     negative rho (up, down):  3.092E+00 2.842E-02

     total cpu time spent up to now is      676.8 secs

     total energy              =   -1937.67396075 Ry
     Harris-Foulkes estimate   =   -1937.67396058 Ry
     estimated scf accuracy    <       0.01458639 Ry

     total magnetization       =     1.00 Bohr mag/cell
     absolute magnetization    =     1.15 Bohr mag/cell

     iteration # 55     ecut=    25.73 Ry     beta= 0.70
     CG style diagonalization
     ethr =  2.33E-06,  avg # of iterations =  3.0

     negative rho (up, down):  3.092E+00 2.843E-02

     total cpu time spent up to now is      688.6 secs

     total energy              =   -1937.67396030 Ry
     Harris-Foulkes estimate   =   -1937.67396076 Ry
     estimated scf accuracy    <       0.01482081 Ry

     total magnetization       =     1.00 Bohr mag/cell
     absolute magnetization    =     1.15 Bohr mag/cell

     iteration # 56     ecut=    25.73 Ry     beta= 0.70
     CG style diagonalization
     ethr =  2.33E-06,  avg # of iterations =  3.0

     negative rho (up, down):  3.092E+00 2.841E-02

     total cpu time spent up to now is      700.4 secs

     total energy              =   -1937.67396449 Ry
     Harris-Foulkes estimate   =   -1937.67396031 Ry
     estimated scf accuracy    <       0.01202227 Ry

     total magnetization       =     1.00 Bohr mag/cell
     absolute magnetization    =     1.14 Bohr mag/cell

     iteration # 57     ecut=    25.73 Ry     beta= 0.70
     CG style diagonalization
     ethr =  2.33E-06,  avg # of iterations =  3.0

     negative rho (up, down):  3.092E+00 2.841E-02

     total cpu time spent up to now is      712.3 secs

     total energy              =   -1937.67396795 Ry
     Harris-Foulkes estimate   =   -1937.67396496 Ry
     estimated scf accuracy    <       0.01521032 Ry

     total magnetization       =     1.00 Bohr mag/cell
     absolute magnetization    =     1.15 Bohr mag/cell

     iteration # 58     ecut=    25.73 Ry     beta= 0.70
     CG style diagonalization
     ethr =  2.33E-06,  avg # of iterations =  3.0

     negative rho (up, down):  3.092E+00 2.840E-02

     total cpu time spent up to now is      724.0 secs

     total energy              =   -1937.67397266 Ry
     Harris-Foulkes estimate   =   -1937.67396795 Ry
     estimated scf accuracy    <       0.01522933 Ry

     total magnetization       =     1.00 Bohr mag/cell
     absolute magnetization    =     1.15 Bohr mag/cell

     iteration # 59     ecut=    25.73 Ry     beta= 0.70
     CG style diagonalization
     ethr =  2.33E-06,  avg # of iterations =  3.0

     negative rho (up, down):  3.092E+00 2.841E-02

     total cpu time spent up to now is      735.8 secs

     total energy              =   -1937.67396931 Ry
     Harris-Foulkes estimate   =   -1937.67397266 Ry
     estimated scf accuracy    <       0.01525470 Ry

     total magnetization       =     1.00 Bohr mag/cell
     absolute magnetization    =     1.15 Bohr mag/cell

     iteration # 60     ecut=    25.73 Ry     beta= 0.70
     CG style diagonalization
     ethr =  2.33E-06,  avg # of iterations =  3.0

     negative rho (up, down):  3.093E+00 2.838E-02

     total cpu time spent up to now is      747.6 secs

     total energy              =   -1937.67398431 Ry
     Harris-Foulkes estimate   =   -1937.67396931 Ry
     estimated scf accuracy    <       0.01523647 Ry

     total magnetization       =     1.00 Bohr mag/cell
     absolute magnetization    =     1.15 Bohr mag/cell

     iteration # 61     ecut=    25.73 Ry     beta= 0.70
     CG style diagonalization
     ethr =  2.33E-06,  avg # of iterations =  3.0

     negative rho (up, down):  3.093E+00 2.834E-02

     total cpu time spent up to now is      759.4 secs

     total energy              =   -1937.67400006 Ry
     Harris-Foulkes estimate   =   -1937.67398435 Ry
     estimated scf accuracy    <       0.01530456 Ry

     total magnetization       =     1.00 Bohr mag/cell
     absolute magnetization    =     1.15 Bohr mag/cell

     iteration # 62     ecut=    25.73 Ry     beta= 0.70
     CG style diagonalization
     ethr =  2.33E-06,  avg # of iterations =  3.0

     negative rho (up, down):  3.093E+00 2.833E-02

     total cpu time spent up to now is      771.3 secs

     total energy              =   -1937.67401220 Ry
     Harris-Foulkes estimate   =   -1937.67400011 Ry
     estimated scf accuracy    <       0.01538461 Ry

     total magnetization       =     1.00 Bohr mag/cell
     absolute magnetization    =     1.15 Bohr mag/cell

     iteration # 63     ecut=    25.73 Ry     beta= 0.70
     CG style diagonalization
     ethr =  2.33E-06,  avg # of iterations =  3.0

     negative rho (up, down):  3.096E+00 2.791E-02

     total cpu time spent up to now is      783.0 secs

     total energy              =   -1937.67425680 Ry
     Harris-Foulkes estimate   =   -1937.67401224 Ry
     estimated scf accuracy    <       0.01545599 Ry

     total magnetization       =     1.00 Bohr mag/cell
     absolute magnetization    =     1.15 Bohr mag/cell

     iteration # 64     ecut=    25.73 Ry     beta= 0.70
     CG style diagonalization
     ethr =  2.33E-06,  avg # of iterations =  3.0

     negative rho (up, down):  3.051E+00 3.366E-02

     total cpu time spent up to now is      794.7 secs

     total energy              =   -1937.67066959 Ry
     Harris-Foulkes estimate   =   -1937.67426297 Ry
     estimated scf accuracy    <       0.01667782 Ry

     total magnetization       =     1.00 Bohr mag/cell
     absolute magnetization    =     1.16 Bohr mag/cell

     iteration # 65     ecut=    25.73 Ry     beta= 0.70
     CG style diagonalization
     c_bands:  1 eigenvalues not converged
     ethr =  2.33E-06,  avg # of iterations =  3.3

     negative rho (up, down):  3.065E+00 3.200E-02

     total cpu time spent up to now is      808.2 secs

     total energy              =   -1937.67730209 Ry
     Harris-Foulkes estimate   =   -1937.67939463 Ry
     estimated scf accuracy    <       0.07912799 Ry

     total magnetization       =     1.00 Bohr mag/cell
     absolute magnetization    =     1.13 Bohr mag/cell

     iteration # 66     ecut=    25.73 Ry     beta= 0.70
     CG style diagonalization
     ethr =  2.33E-06,  avg # of iterations =  3.0

     negative rho (up, down):  3.077E+00 3.042E-02

     total cpu time spent up to now is      820.2 secs

     total energy              =   -1937.67556675 Ry
     Harris-Foulkes estimate   =   -1937.67743365 Ry
     estimated scf accuracy    <       0.06989608 Ry

     total magnetization       =     1.00 Bohr mag/cell
     absolute magnetization    =     1.12 Bohr mag/cell

     iteration # 67     ecut=    25.73 Ry     beta= 0.70
     CG style diagonalization
     ethr =  2.33E-06,  avg # of iterations =  3.0

     negative rho (up, down):  3.087E+00 2.912E-02

     total cpu time spent up to now is      832.3 secs

     total energy              =   -1937.67438756 Ry
     Harris-Foulkes estimate   =   -1937.67565966 Ry
     estimated scf accuracy    <       0.05993092 Ry

     total magnetization       =     1.00 Bohr mag/cell
     absolute magnetization    =     1.12 Bohr mag/cell

     iteration # 68     ecut=    25.73 Ry     beta= 0.70
     CG style diagonalization
     ethr =  2.33E-06,  avg # of iterations =  3.0

     negative rho (up, down):  3.089E+00 2.884E-02

     total cpu time spent up to now is      844.1 secs

     total energy              =   -1937.67421881 Ry
     Harris-Foulkes estimate   =   -1937.67443944 Ry
     estimated scf accuracy    <       0.05331385 Ry

     total magnetization       =     1.00 Bohr mag/cell
     absolute magnetization    =     1.12 Bohr mag/cell

     iteration # 69     ecut=    25.73 Ry     beta= 0.70
     CG style diagonalization
     ethr =  2.33E-06,  avg # of iterations =  3.0

     negative rho (up, down):  3.090E+00 2.870E-02

     total cpu time spent up to now is      855.9 secs

     total energy              =   -1937.67411386 Ry
     Harris-Foulkes estimate   =   -1937.67422459 Ry
     estimated scf accuracy    <       0.05206105 Ry

     total magnetization       =     1.00 Bohr mag/cell
     absolute magnetization    =     1.12 Bohr mag/cell

     iteration # 70     ecut=    25.73 Ry     beta= 0.70
     CG style diagonalization
     ethr =  2.33E-06,  avg # of iterations =  3.0

     negative rho (up, down):  3.092E+00 2.849E-02

     total cpu time spent up to now is      867.8 secs

     total energy              =   -1937.67398435 Ry
     Harris-Foulkes estimate   =   -1937.67411632 Ry
     estimated scf accuracy    <       0.05130529 Ry

     total magnetization       =     1.00 Bohr mag/cell
     absolute magnetization    =     1.12 Bohr mag/cell

     iteration # 71     ecut=    25.73 Ry     beta= 0.70
     CG style diagonalization
     ethr =  2.33E-06,  avg # of iterations =  3.0

     negative rho (up, down):  3.093E+00 2.839E-02

     total cpu time spent up to now is      879.7 secs

     total energy              =   -1937.67390285 Ry
     Harris-Foulkes estimate   =   -1937.67398612 Ry
     estimated scf accuracy    <       0.05039050 Ry

     total magnetization       =     1.00 Bohr mag/cell
     absolute magnetization    =     1.13 Bohr mag/cell

     iteration # 72     ecut=    25.73 Ry     beta= 0.70
     CG style diagonalization
     ethr =  2.33E-06,  avg # of iterations =  3.0

     negative rho (up, down):  3.093E+00 2.835E-02

     total cpu time spent up to now is      891.5 secs

     total energy              =   -1937.67402547 Ry
     Harris-Foulkes estimate   =   -1937.67399302 Ry
     estimated scf accuracy    <       0.01530721 Ry

     total magnetization       =     1.00 Bohr mag/cell
     absolute magnetization    =     1.15 Bohr mag/cell

     iteration # 73     ecut=    25.73 Ry     beta= 0.70
     CG style diagonalization
     ethr =  2.33E-06,  avg # of iterations =  3.0

     negative rho (up, down):  3.092E+00 2.843E-02

     total cpu time spent up to now is      903.3 secs

     total energy              =   -1937.67398295 Ry
     Harris-Foulkes estimate   =   -1937.67402582 Ry
     estimated scf accuracy    <       0.01546317 Ry

     total magnetization       =     1.00 Bohr mag/cell
     absolute magnetization    =     1.15 Bohr mag/cell

     iteration # 74     ecut=    25.73 Ry     beta= 0.70
     CG style diagonalization
     ethr =  2.33E-06,  avg # of iterations =  3.0

     negative rho (up, down):  3.092E+00 2.851E-02

     total cpu time spent up to now is      915.1 secs

     total energy              =   -1937.67395721 Ry
     Harris-Foulkes estimate   =   -1937.67398316 Ry
     estimated scf accuracy    <       0.01529522 Ry

     total magnetization       =     1.00 Bohr mag/cell
     absolute magnetization    =     1.15 Bohr mag/cell

     iteration # 75     ecut=    25.73 Ry     beta= 0.70
     CG style diagonalization
     ethr =  2.33E-06,  avg # of iterations =  3.0

     negative rho (up, down):  3.092E+00 2.848E-02

     total cpu time spent up to now is      926.9 secs

     total energy              =   -1937.67395742 Ry
     Harris-Foulkes estimate   =   -1937.67396290 Ry
     estimated scf accuracy    <       0.04635905 Ry

     total magnetization       =     1.00 Bohr mag/cell
     absolute magnetization    =     1.12 Bohr mag/cell

     iteration # 76     ecut=    25.73 Ry     beta= 0.70
     CG style diagonalization
     ethr =  2.33E-06,  avg # of iterations =  3.0

     negative rho (up, down):  3.092E+00 2.848E-02

     total cpu time spent up to now is      938.7 secs

     total energy              =   -1937.67396189 Ry
     Harris-Foulkes estimate   =   -1937.67396091 Ry
     estimated scf accuracy    <       0.01240226 Ry

     total magnetization       =     1.00 Bohr mag/cell
     absolute magnetization    =     1.14 Bohr mag/cell

     iteration # 77     ecut=    25.73 Ry     beta= 0.70
     CG style diagonalization
     ethr =  2.33E-06,  avg # of iterations =  3.0

     negative rho (up, down):  3.092E+00 2.849E-02

     total cpu time spent up to now is      950.6 secs

     total energy              =   -1937.67395600 Ry
     Harris-Foulkes estimate   =   -1937.67396193 Ry
     estimated scf accuracy    <       0.01408505 Ry

     total magnetization       =     1.00 Bohr mag/cell
     absolute magnetization    =     1.15 Bohr mag/cell

     iteration # 78     ecut=    25.73 Ry     beta= 0.70
     CG style diagonalization
     ethr =  2.33E-06,  avg # of iterations =  3.0

     negative rho (up, down):  3.092E+00 2.849E-02

     total cpu time spent up to now is      962.3 secs

     total energy              =   -1937.67396595 Ry
     Harris-Foulkes estimate   =   -1937.67396560 Ry
     estimated scf accuracy    <       0.04930122 Ry

     total magnetization       =     1.00 Bohr mag/cell
     absolute magnetization    =     1.12 Bohr mag/cell

     iteration # 79     ecut=    25.73 Ry     beta= 0.70
     CG style diagonalization
     ethr =  2.33E-06,  avg # of iterations =  3.0

     negative rho (up, down):  3.092E+00 2.844E-02

     total cpu time spent up to now is      974.1 secs

     total energy              =   -1937.67394441 Ry
     Harris-Foulkes estimate   =   -1937.67396597 Ry
     estimated scf accuracy    <       0.04935759 Ry

     total magnetization       =     1.00 Bohr mag/cell
     absolute magnetization    =     1.12 Bohr mag/cell

     iteration # 80     ecut=    25.73 Ry     beta= 0.70
     CG style diagonalization
     ethr =  2.33E-06,  avg # of iterations =  3.0

     negative rho (up, down):  3.092E+00 2.842E-02

     total cpu time spent up to now is      985.9 secs

     total energy              =   -1937.67398251 Ry
     Harris-Foulkes estimate   =   -1937.67396861 Ry
     estimated scf accuracy    <       0.01521305 Ry

     total magnetization       =     1.00 Bohr mag/cell
     absolute magnetization    =     1.15 Bohr mag/cell

     iteration # 81     ecut=    25.73 Ry     beta= 0.70
     CG style diagonalization
     ethr =  2.33E-06,  avg # of iterations =  3.0

     negative rho (up, down):  3.092E+00 2.843E-02

     total cpu time spent up to now is      997.6 secs

     total energy              =   -1937.67396912 Ry
     Harris-Foulkes estimate   =   -1937.67398255 Ry
     estimated scf accuracy    <       0.01531176 Ry

     total magnetization       =     1.00 Bohr mag/cell
     absolute magnetization    =     1.15 Bohr mag/cell

     iteration # 82     ecut=    25.73 Ry     beta= 0.70
     CG style diagonalization
     ethr =  2.33E-06,  avg # of iterations =  3.0

     negative rho (up, down):  3.092E+00 2.844E-02

     total cpu time spent up to now is     1009.5 secs

     total energy              =   -1937.67396416 Ry
     Harris-Foulkes estimate   =   -1937.67396913 Ry
     estimated scf accuracy    <       0.01525728 Ry

     total magnetization       =     1.00 Bohr mag/cell
     absolute magnetization    =     1.15 Bohr mag/cell

     iteration # 83     ecut=    25.73 Ry     beta= 0.70
     CG style diagonalization
     ethr =  2.33E-06,  avg # of iterations =  3.0

     negative rho (up, down):  3.092E+00 2.844E-02

     total cpu time spent up to now is     1021.3 secs

     total energy              =   -1937.67396481 Ry
     Harris-Foulkes estimate   =   -1937.67396423 Ry
     estimated scf accuracy    <       0.01466113 Ry

     total magnetization       =     1.00 Bohr mag/cell
     absolute magnetization    =     1.15 Bohr mag/cell

     iteration # 84     ecut=    25.73 Ry     beta= 0.70
     CG style diagonalization
     ethr =  2.33E-06,  avg # of iterations =  3.0

     negative rho (up, down):  3.092E+00 2.844E-02

     total cpu time spent up to now is     1033.0 secs

     total energy              =   -1937.67396215 Ry
     Harris-Foulkes estimate   =   -1937.67396481 Ry
     estimated scf accuracy    <       0.01439043 Ry

     total magnetization       =     1.00 Bohr mag/cell
     absolute magnetization    =     1.15 Bohr mag/cell

     iteration # 85     ecut=    25.73 Ry     beta= 0.70
     CG style diagonalization
     ethr =  2.33E-06,  avg # of iterations =  3.0

     negative rho (up, down):  3.092E+00 2.844E-02

     total cpu time spent up to now is     1044.8 secs

     total energy              =   -1937.67396452 Ry
     Harris-Foulkes estimate   =   -1937.67396224 Ry
     estimated scf accuracy    <       0.01128718 Ry

     total magnetization       =     1.00 Bohr mag/cell
     absolute magnetization    =     1.14 Bohr mag/cell

     iteration # 86     ecut=    25.73 Ry     beta= 0.70
     CG style diagonalization
     ethr =  2.33E-06,  avg # of iterations =  3.0

     negative rho (up, down):  3.092E+00 2.847E-02

     total cpu time spent up to now is     1056.5 secs

     total energy              =   -1937.67394680 Ry
     Harris-Foulkes estimate   =   -1937.67396475 Ry
     estimated scf accuracy    <       0.01455915 Ry

     total magnetization       =     1.00 Bohr mag/cell
     absolute magnetization    =     1.15 Bohr mag/cell

     iteration # 87     ecut=    25.73 Ry     beta= 0.70
     CG style diagonalization
     ethr =  2.33E-06,  avg # of iterations =  3.0

     negative rho (up, down):  3.092E+00 2.845E-02

     total cpu time spent up to now is     1068.4 secs

     total energy              =   -1937.67398520 Ry
     Harris-Foulkes estimate   =   -1937.67398366 Ry
     estimated scf accuracy    <       0.04991734 Ry

     total magnetization       =     1.00 Bohr mag/cell
     absolute magnetization    =     1.13 Bohr mag/cell

     iteration # 88     ecut=    25.73 Ry     beta= 0.70
     CG style diagonalization
     ethr =  2.33E-06,  avg # of iterations =  3.0

     negative rho (up, down):  3.092E+00 2.844E-02

     total cpu time spent up to now is     1080.1 secs

     total energy              =   -1937.67397475 Ry
     Harris-Foulkes estimate   =   -1937.67398525 Ry
     estimated scf accuracy    <       0.05010864 Ry

     total magnetization       =     1.00 Bohr mag/cell
     absolute magnetization    =     1.13 Bohr mag/cell

     iteration # 89     ecut=    25.73 Ry     beta= 0.70
     CG style diagonalization
     ethr =  2.33E-06,  avg # of iterations =  3.0

     negative rho (up, down):  3.092E+00 2.842E-02

     total cpu time spent up to now is     1091.8 secs

     total energy              =   -1937.67395196 Ry
     Harris-Foulkes estimate   =   -1937.67397476 Ry
     estimated scf accuracy    <       0.05004198 Ry

     total magnetization       =     1.00 Bohr mag/cell
     absolute magnetization    =     1.13 Bohr mag/cell

     iteration # 90     ecut=    25.73 Ry     beta= 0.70
     CG style diagonalization
     ethr =  2.33E-06,  avg # of iterations =  3.0

     negative rho (up, down):  3.092E+00 2.843E-02

     total cpu time spent up to now is     1103.6 secs

     total energy              =   -1937.67396123 Ry
     Harris-Foulkes estimate   =   -1937.67396495 Ry
     estimated scf accuracy    <       0.01510752 Ry

     total magnetization       =     1.00 Bohr mag/cell
     absolute magnetization    =     1.15 Bohr mag/cell

     iteration # 91     ecut=    25.73 Ry     beta= 0.70
     CG style diagonalization
     ethr =  2.33E-06,  avg # of iterations =  3.0

     negative rho (up, down):  3.092E+00 2.843E-02

     total cpu time spent up to now is     1116.1 secs

     total energy              =   -1937.67395850 Ry
     Harris-Foulkes estimate   =   -1937.67396125 Ry
     estimated scf accuracy    <       0.01402915 Ry

     total magnetization       =     1.00 Bohr mag/cell
     absolute magnetization    =     1.15 Bohr mag/cell

     iteration # 92     ecut=    25.73 Ry     beta= 0.70
     CG style diagonalization
     ethr =  2.33E-06,  avg # of iterations =  3.0

     negative rho (up, down):  3.092E+00 2.843E-02

     total cpu time spent up to now is     1128.1 secs

     total energy              =   -1937.67395934 Ry
     Harris-Foulkes estimate   =   -1937.67396312 Ry
     estimated scf accuracy    <       0.04915233 Ry

     total magnetization       =     1.00 Bohr mag/cell
     absolute magnetization    =     1.12 Bohr mag/cell

     iteration # 93     ecut=    25.73 Ry     beta= 0.70
     CG style diagonalization
     ethr =  2.33E-06,  avg # of iterations =  3.0

     negative rho (up, down):  3.092E+00 2.844E-02

     total cpu time spent up to now is     1140.0 secs

     total energy              =   -1937.67396070 Ry
     Harris-Foulkes estimate   =   -1937.67396064 Ry
     estimated scf accuracy    <       0.01058358 Ry

     total magnetization       =     1.00 Bohr mag/cell
     absolute magnetization    =     1.14 Bohr mag/cell

     iteration # 94     ecut=    25.73 Ry     beta= 0.70
     CG style diagonalization
     ethr =  2.33E-06,  avg # of iterations =  3.0

     negative rho (up, down):  3.092E+00 2.844E-02

     total cpu time spent up to now is     1151.8 secs

     total energy              =   -1937.67396038 Ry
     Harris-Foulkes estimate   =   -1937.67396071 Ry
     estimated scf accuracy    <       0.00779037 Ry

     total magnetization       =     1.00 Bohr mag/cell
     absolute magnetization    =     1.13 Bohr mag/cell

     iteration # 95     ecut=    25.73 Ry     beta= 0.70
     CG style diagonalization
     ethr =  1.99E-06,  avg # of iterations =  3.0

     negative rho (up, down):  3.093E+00 2.850E-02
 
     Magnetic moment per site:
     atom:    1    charge:    0.8359    magn:   -0.0000    constr:    0.0000
     atom:    2    charge:    0.8296    magn:    0.0003    constr:    0.0000
     atom:    3    charge:    0.8311    magn:    0.0001    constr:    0.0000
     atom:    4    charge:    0.8328    magn:   -0.0000    constr:    0.0000
     atom:    5    charge:    0.8360    magn:    0.0001    constr:    0.0000
     atom:    6    charge:    0.8342    magn:   -0.0001    constr:    0.0000
     atom:    7    charge:    0.8354    magn:    0.0001    constr:    0.0000
     atom:    8    charge:    0.8304    magn:    0.0001    constr:    0.0000
     atom:    9    charge:    0.8339    magn:    0.0002    constr:    0.0000
     atom:   10    charge:    0.8199    magn:    0.0019    constr:    0.0000
     atom:   11    charge:    0.8308    magn:    0.0001    constr:    0.0000
     atom:   12    charge:    0.8346    magn:    0.0002    constr:    0.0000
     atom:   13    charge:    0.8318    magn:   -0.0001    constr:    0.0000
     atom:   14    charge:    0.8342    magn:   -0.0001    constr:    0.0000
     atom:   15    charge:    0.8354    magn:    0.0001    constr:    0.0000
     atom:   16    charge:    0.8342    magn:    0.0012    constr:    0.0000
     atom:   17    charge:    0.8439    magn:    0.0050    constr:    0.0000
     atom:   18    charge:    0.8333    magn:    0.0044    constr:    0.0000
     atom:   19    charge:    0.8452    magn:    0.0020    constr:    0.0000
     atom:   20    charge:    0.8346    magn:    0.0002    constr:    0.0000
     atom:   21    charge:    0.8360    magn:    0.0001    constr:    0.0000
     atom:   22    charge:    0.8300    magn:   -0.0000    constr:    0.0000
     atom:   23    charge:    0.8292    magn:    0.0000    constr:    0.0000
     atom:   24    charge:    0.8263    magn:    0.0025    constr:    0.0000
     atom:   25    charge:    1.6484    magn:    0.0661    constr:    0.0000
     atom:   26    charge:    0.8333    magn:    0.0044    constr:    0.0000
[...]
    -8.1441  -8.1013  -8.0865  -7.9387  -7.8947  -7.8680  -7.8665  -7.8577
    -7.7970  -7.7944  -7.7921  -7.7880  -7.7752  -7.7702  -7.6228  -7.5238
    -7.3171  -7.3107  -7.2476  -7.1313  -7.1105  -7.1042  -7.0503  -6.9282
    -6.4119  -6.3977  -6.3828  -6.3725  -6.2615  -6.2117  -6.0756  -6.0607
    -6.0352  -6.0135  -5.9860  -3.9079  -0.2407   0.1412   0.3392   0.3892
     0.4004   0.4110   0.4192   0.4230   0.4256   0.4645   0.7817   0.7865
     0.7888   0.7982   0.8042   0.8520   0.9961   0.9984   1.0001   1.0032
     1.0052   1.0062   1.3583   1.3682   1.3750   1.3923   1.4098   1.4366
     1.5698   1.6128   1.6745   1.6775   1.7023   1.7027   1.7046   1.7064
     1.7092   1.7129   1.7348   1.7478   1.8003   1.8238   1.8684   1.8847
     1.9591   1.9973   2.0200   2.0558   2.0716

     highest occupied, lowest unoccupied level (ev):    -5.9860   -4.0161

!    total energy              =   -1713.17217666 Ry
     Harris-Foulkes estimate   =   -1713.17219026 Ry
     estimated scf accuracy    <       0.00003685 Ry

     total magnetization       =     1.00 Bohr mag/cell
     absolute magnetization    =     1.13 Bohr mag/cell

     convergence has been achieved in   4 iterations

     Using ACE for calculation of exact exchange

     total energy              =   -1713.17373267 Ry
     Harris-Foulkes estimate   =   -1713.17374627 Ry
     est. exchange err (dexx)  =       0.00155600 Ry
     - averaged Fock potential =     193.58564654 Ry
     + Fock energy (ACE)       =     -96.81786907 Ry

     EXX: now go back to refine exchange calculation

     total cpu time spent up to now is    16568.4 secs

     Self-consistent Calculation

     iteration #  1     ecut=    25.73 Ry     beta= 0.70
     CG style diagonalization
     c_bands:  2 eigenvalues not converged
     c_bands:  2 eigenvalues not converged
     ethr =  3.63E-07,  avg # of iterations =  4.4

     negative rho (up, down):  3.225E+00 2.228E-02

     total cpu time spent up to now is    16597.0 secs

     total energy              =   -1713.17338651 Ry
     Harris-Foulkes estimate   =   -1713.17450620 Ry
     estimated scf accuracy    <       0.00192312 Ry

     total magnetization       =     1.00 Bohr mag/cell
     absolute magnetization    =     1.13 Bohr mag/cell

     iteration #  2     ecut=    25.73 Ry     beta= 0.70
     CG style diagonalization
     ethr =  4.92E-07,  avg # of iterations =  4.0

     negative rho (up, down):  3.207E+00 2.471E-02

     total cpu time spent up to now is    16616.2 secs

     total energy              =   -1713.17156674 Ry
     Harris-Foulkes estimate   =   -1713.17788456 Ry
     estimated scf accuracy    <       0.02347442 Ry

     total magnetization       =     1.00 Bohr mag/cell
     absolute magnetization    =     1.17 Bohr mag/cell

     iteration #  3     ecut=    25.73 Ry     beta= 0.70
     CG style diagonalization
     ethr =  4.92E-07,  avg # of iterations =  3.6

     negative rho (up, down):  3.213E+00 2.376E-02
 
     Magnetic moment per site:
     atom:    1    charge:    0.8064    magn:    0.0000    constr:    0.0000
     atom:    2    charge:    0.7998    magn:    0.0004    constr:    0.0000
     atom:    3    charge:    0.8014    magn:    0.0002    constr:    0.0000
     atom:    4    charge:    0.8032    magn:    0.0000    constr:    0.0000
     atom:    5    charge:    0.8064    magn:    0.0001    constr:    0.0000
     atom:    6    charge:    0.8046    magn:   -0.0000    constr:    0.0000
     atom:    7    charge:    0.8057    magn:    0.0001    constr:    0.0000
     atom:    8    charge:    0.8005    magn:    0.0002    constr:    0.0000
     atom:    9    charge:    0.8042    magn:    0.0005    constr:    0.0000
     atom:   10    charge:    0.7899    magn:    0.0021    constr:    0.0000
     atom:   11    charge:    0.8010    magn:    0.0003    constr:    0.0000
     atom:   12    charge:    0.8050    magn:    0.0003    constr:    0.0000
     atom:   13    charge:    0.8021    magn:    0.0000    constr:    0.0000
     atom:   14    charge:    0.8046    magn:   -0.0000    constr:    0.0000
     atom:   15    charge:    0.8057    magn:    0.0001    constr:    0.0000
     atom:   16    charge:    0.8044    magn:    0.0013    constr:    0.0000
     atom:   17    charge:    0.8168    magn:    0.0065    constr:    0.0000
     atom:   18    charge:    0.8056    magn:    0.0060    constr:    0.0000
     atom:   19    charge:    0.8156    magn:    0.0024    constr:    0.0000
     atom:   20    charge:    0.8050    magn:    0.0003    constr:    0.0000
     atom:   21    charge:    0.8064    magn:    0.0001    constr:    0.0000
     atom:   22    charge:    0.8003    magn:    0.0000    constr:    0.0000
     atom:   23    charge:    0.7995    magn:    0.0001    constr:    0.0000
     atom:   24    charge:    0.7963    magn:    0.0030    constr:    0.0000
     atom:   25    charge:    1.6186    magn:    0.0984    constr:    0.0000
     atom:   26    charge:    0.8056    magn:    0.0060    constr:    0.0000
     atom:   27    charge:    0.8010    magn:    0.0003    constr:    0.0000
     atom:   28    charge:    0.8032    magn:    0.0000    constr:    0.0000
     atom:   29    charge:    0.7999    magn:    0.0001    constr:    0.0000
     atom:   30    charge:    0.8011    magn:    0.0001    constr:    0.0000
     atom:   31    charge:    0.8019    magn:    0.0008    constr:    0.0000
     atom:   32    charge:    0.7963    magn:    0.0030    constr:    0.0000
     atom:   33    charge:    0.8168    magn:    0.0065    constr:    0.0000
     atom:   34    charge:    0.7899    magn:    0.0021    constr:    0.0000
     atom:   35    charge:    0.8015    magn:    0.0002    constr:    0.0000
     atom:   36    charge:    0.7999    magn:   -0.0000    constr:    0.0000
     atom:   37    charge:    0.8012    magn:    0.0000    constr:    0.0000
     atom:   38    charge:    0.8011    magn:    0.0001    constr:    0.0000
     atom:   39    charge:    0.7995    magn:    0.0001    constr:    0.0000
     atom:   40    charge:    0.8044    magn:    0.0013    constr:    0.0000
     atom:   41    charge:    0.8042    magn:    0.0005    constr:    0.0000
     atom:   42    charge:    0.7998    magn:    0.0004    constr:    0.0000
     atom:   43    charge:    0.7978    magn:    0.0002    constr:    0.0000
     atom:   44    charge:    0.7999    magn:   -0.0000    constr:    0.0000
     atom:   45    charge:    0.7999    magn:    0.0001    constr:    0.0000
     atom:   46    charge:    0.8003    magn:    0.0000    constr:    0.0000
     atom:   47    charge:    0.8057    magn:    0.0001    constr:    0.0000
     atom:   48    charge:    0.8005    magn:    0.0002    constr:    0.0000
     atom:   49    charge:    0.8064    magn:    0.0000    constr:    0.0000
     atom:   50    charge:    2.7285    magn:   -0.0003    constr:    0.0000
     atom:   51    charge:    2.7223    magn:   -0.0004    constr:    0.0000
     atom:   52    charge:    2.7190    magn:   -0.0011    constr:    0.0000
     atom:   53    charge:    2.7233    magn:   -0.0004    constr:    0.0000
     atom:   54    charge:    2.7260    magn:   -0.0002    constr:    0.0000
     atom:   55    charge:    2.7250    magn:   -0.0000    constr:    0.0000
     atom:   56    charge:    2.7202    magn:   -0.0001    constr:    0.0000
     atom:   57    charge:    2.7218    magn:    0.0003    constr:    0.0000
     atom:   58    charge:    2.7173    magn:   -0.0001    constr:    0.0000
     atom:   59    charge:    2.7176    magn:   -0.0015    constr:    0.0000
     atom:   60    charge:    2.7083    magn:   -0.0022    constr:    0.0000
     atom:   61    charge:    2.7232    magn:    0.0003    constr:    0.0000
     atom:   62    charge:    2.7188    magn:    0.0005    constr:    0.0000
     atom:   63    charge:    2.7250    magn:   -0.0000    constr:    0.0000
     atom:   64    charge:    2.7312    magn:   -0.0002    constr:    0.0000
     atom:   65    charge:    2.7223    magn:    0.0003    constr:    0.0000
     atom:   66    charge:    2.7160    magn:    0.0032    constr:    0.0000
     atom:   67    charge:    1.6334    magn:   -0.0029    constr:    0.0000
     atom:   68    charge:    2.7398    magn:    0.0061    constr:    0.0000
     atom:   69    charge:    2.7232    magn:    0.0003    constr:    0.0000
     atom:   70    charge:    2.7260    magn:   -0.0002    constr:    0.0000
     atom:   71    charge:    2.7229    magn:   -0.0002    constr:    0.0000
     atom:   72    charge:    2.7204    magn:   -0.0003    constr:    0.0000
     atom:   73    charge:    2.7180    magn:   -0.0008    constr:    0.0000
     atom:   74    charge:    2.7100    magn:   -0.0018    constr:    0.0000
     atom:   75    charge:    1.6338    magn:   -0.0030    constr:    0.0000
     atom:   76    charge:    2.7083    magn:   -0.0022    constr:    0.0000
     atom:   77    charge:    2.7233    magn:   -0.0004    constr:    0.0000
     atom:   78    charge:    2.7278    magn:   -0.0002    constr:    0.0000
     atom:   79    charge:    2.7196    magn:   -0.0002    constr:    0.0000
     atom:   80    charge:    2.7312    magn:   -0.0003    constr:    0.0000
     atom:   81    charge:    2.7180    magn:   -0.0007    constr:    0.0000
     atom:   82    charge:    2.7160    magn:    0.0032    constr:    0.0000
     atom:   83    charge:    2.7176    magn:   -0.0015    constr:    0.0000
     atom:   84    charge:    2.7189    magn:   -0.0011    constr:    0.0000
     atom:   85    charge:    2.7209    magn:   -0.0003    constr:    0.0000
     atom:   86    charge:    2.7159    magn:   -0.0001    constr:    0.0000
     atom:   87    charge:    2.7196    magn:   -0.0002    constr:    0.0000
     atom:   88    charge:    2.7204    magn:   -0.0003    constr:    0.0000
     atom:   89    charge:    2.7223    magn:    0.0003    constr:    0.0000
     atom:   90    charge:    2.7172    magn:   -0.0001    constr:    0.0000
     atom:   91    charge:    2.7223    magn:   -0.0004    constr:    0.0000
     atom:   92    charge:    2.7293    magn:   -0.0002    constr:    0.0000
     atom:   93    charge:    2.7209    magn:   -0.0003    constr:    0.0000
     atom:   94    charge:    2.7278    magn:   -0.0002    constr:    0.0000
     atom:   95    charge:    2.7229    magn:   -0.0002    constr:    0.0000
     atom:   96    charge:    2.7312    magn:   -0.0002    constr:    0.0000
     atom:   97    charge:    2.7217    magn:    0.0003    constr:    0.0000
     atom:   98    charge:    2.7285    magn:   -0.0003    constr:    0.0000

     total cpu time spent up to now is    16633.2 secs

     End of self-consistent calculation

 ------ SPIN UP ------------


          k = 0.0000 0.0000 0.0000 ( 39975 PWs)   bands (ev):

   -25.7109 -25.3656 -25.1004 -25.0728 -25.0514 -25.0241 -24.9979 -24.5905
   -24.3112 -24.2962 -24.2931 -24.1789 -24.1551 -23.9946 -23.9166 -23.9158
   -23.9023 -23.7837 -23.7651 -23.1976 -22.9909 -22.9664 -22.9557 -22.8934
   -22.8850 -22.8779 -22.8749 -22.8630 -22.8582 -22.6748 -22.6722 -22.5684
   -22.4355 -22.4351 -22.4323 -22.3121 -22.3014 -22.0223 -22.0136 -21.9922
   -21.9898 -21.8801 -21.8775 -21.7817 -21.7737 -21.7445 -21.7441 -20.9496
   -18.7882 -16.2205 -15.4810 -15.4307 -15.4293 -15.3884 -15.3508 -15.2469
   -15.2009 -15.1803 -15.1506 -15.1217 -15.1046 -14.7898 -14.7417 -14.7068
   -14.6589 -14.6325 -14.5944 -14.1012 -14.0265 -13.9946 -13.9269 -13.9042
   -13.8774 -13.8750 -13.8710 -13.8512 -13.8291 -13.7193 -13.6896 -13.4096
   -13.1504 -13.1333 -13.0808 -13.0802 -13.0323 -12.4714 -12.4281 -12.3914
   -12.3142 -12.2807 -12.2318 -11.7877 -11.6898 -11.6592 -11.6300 -11.5850
   -11.5845 -11.5233 -11.3333 -11.2561 -11.2297 -11.1866 -11.1788 -11.1441
   -11.1414 -11.1356 -11.1086 -11.0823 -11.0760 -11.0644 -11.0612 -11.0570
   -11.0451 -10.9988 -10.9865 -10.9848 -10.9724 -10.9386 -10.9344 -10.8926
   -10.8119 -10.7387 -10.4342 -10.3864 -10.3576 -10.3507 -10.3258 -10.2033
   -10.0647  -9.8499  -9.8459  -9.8378  -9.7468  -9.7430  -9.7227  -9.6589
    -9.6167  -9.5767  -9.5149  -9.4962  -9.4878  -9.4794  -9.4625  -9.4487
    -9.4288  -9.3966  -9.2956  -9.2925  -9.2880  -9.2601  -9.2087  -9.1736
    -9.0513  -9.0219  -9.0024  -8.9440  -8.7648  -8.6979  -8.1881  -8.1375
    -8.1314  -8.1202  -8.0783  -7.9127  -7.8687  -7.8490  -7.8460  -7.8421
    -7.7790  -7.7776  -7.7749  -7.7694  -7.7564  -7.7521  -7.6401  -7.5103
    -7.2910  -7.2828  -7.2373  -7.1217  -7.0918  -7.0903  -7.0451  -6.9110
    -6.3972  -6.3763  -6.3677  -6.3529  -6.2598  -6.1956  -6.0631  -6.0504
    -6.0444  -5.9997  -5.9849  -3.9508  -0.6096  -0.3049  -0.0035   0.2297
     0.2599   0.2771   0.2970   0.3162   0.3219   0.3364   0.6431   0.6507
     0.6543   0.6775   0.6829   0.6905   0.9256   0.9287   0.9362   0.9468
     0.9526   0.9568   1.3405   1.3496   1.3620   1.3649   1.4068   1.4251
     1.5843   1.6056   1.6073   1.6109   1.6118   1.6164   1.6203   1.6215
     1.6901   1.6907   1.7373   1.7530   1.7680   1.8190   1.8646   1.8864
     1.9301   1.9370   1.9496   1.9564   1.9863

 ------ SPIN DOWN ----------


          k = 0.0000 0.0000 0.0000 ( 39975 PWs)   bands (ev):

   -25.6619 -25.3541 -25.0975 -25.0693 -25.0506 -25.0183 -24.9973 -24.5753
   -24.3086 -24.2926 -24.2924 -24.1768 -24.1497 -23.9918 -23.9147 -23.9141
   -23.9000 -23.7818 -23.7562 -23.1885 -22.9890 -22.9646 -22.9510 -22.8909
   -22.8846 -22.8768 -22.8746 -22.8624 -22.8576 -22.6710 -22.6709 -22.5660
   -22.4352 -22.4346 -22.4315 -22.3050 -22.2995 -22.0213 -22.0134 -21.9915
   -21.9882 -21.8797 -21.8772 -21.7814 -21.7738 -21.7436 -21.7434 -20.8689
   -18.7519 -16.1307 -15.4715 -15.4279 -15.4269 -15.3822 -15.3425 -15.2448
   -15.1974 -15.1755 -15.1468 -15.1182 -15.1028 -14.7837 -14.7359 -14.6982
   -14.6554 -14.6292 -14.5927 -14.0858 -14.0169 -13.9898 -13.9236 -13.9013
   -13.8752 -13.8732 -13.8696 -13.8492 -13.8255 -13.7148 -13.6802 -13.3989
   -13.1446 -13.1281 -13.0793 -13.0786 -13.0240 -12.4649 -12.4227 -12.3869
   -12.3086 -12.2765 -12.2268 -11.7769 -11.6831 -11.6512 -11.5830 -11.5818
   -11.5776 -11.5210 -11.3278 -11.2514 -11.2238 -11.1760 -11.1421 -11.1398
   -11.1338 -11.1048 -11.1010 -11.0802 -11.0741 -11.0633 -11.0596 -11.0558
   -11.0413 -10.9837 -10.9797 -10.9776 -10.9512 -10.9344 -10.9117 -10.8896
   -10.8065 -10.7338 -10.4300 -10.3824 -10.3567 -10.3499 -10.3249 -10.1994
    -9.9794  -9.8410  -9.8344  -9.8334  -9.7304  -9.7170  -9.7126  -9.6559
    -9.6141  -9.5669  -9.5135  -9.4946  -9.4866  -9.4786  -9.4617  -9.4479
    -9.4248  -9.3689  -9.2885  -9.2861  -9.2783  -9.2563  -9.1704  -9.1612
    -9.0497  -9.0195  -8.9998  -8.9392  -8.7612  -8.6923  -8.1857  -8.1356
    -8.1185  -8.0778  -8.0496  -7.9090  -7.8647  -7.8387  -7.8348  -7.8288
    -7.7767  -7.7727  -7.7705  -7.7684  -7.7546  -7.7502  -7.5923  -7.5006
    -7.2868  -7.2800  -7.2207  -7.1075  -7.0923  -7.0858  -7.0222  -6.9000
    -6.3889  -6.3770  -6.3622  -6.3522  -6.2414  -6.1954  -6.0592  -6.0455
    -6.0106  -5.9994  -5.9551  -3.8312  -0.2434   0.1362   0.3387   0.3962
     0.3987   0.4088   0.4135   0.4176   0.4198   0.5331   0.7719   0.7774
     0.7801   0.7926   0.7989   0.8557   0.9920   0.9936   0.9939   0.9988
     1.0003   1.0010   1.3982   1.4040   1.4145   1.4258   1.4331   1.4443
     1.5987   1.6479   1.6989   1.7003   1.7008   1.7033   1.7044   1.7055
     1.7070   1.7099   1.7640   1.7763   1.7972   1.8541   1.8996   1.9162
     1.9854   2.0225   2.0354   2.0518   2.0554

     highest occupied, lowest unoccupied level (ev):    -5.9551   -3.9508

!    total energy              =   -1713.17444025 Ry
     Harris-Foulkes estimate   =   -1713.17443443 Ry
     estimated scf accuracy    <       0.00005499 Ry

     total magnetization       =     1.00 Bohr mag/cell
     absolute magnetization    =     1.13 Bohr mag/cell

     convergence has been achieved in   3 iterations

     Using ACE for calculation of exact exchange

!!   total energy              =   -1713.17477049 Ry
     Harris-Foulkes estimate   =   -1713.17476468 Ry
     est. exchange err (dexx)  =       0.00033025 Ry
     - averaged Fock potential =     193.65157231 Ry
     + Fock energy (ACE)       =     -96.83403349 Ry

     EXX self-consistency reached

     Writing output data file C2Cn.save/
 
     init_run     :      2.04s CPU      2.19s WALL (       1 calls)
     electrons    :   1493.48s CPU   1514.73s WALL (       4 calls)

     Called by init_run:
     wfcinit      :      0.85s CPU      0.92s WALL (       1 calls)
     potinit      :      0.51s CPU      0.53s WALL (       1 calls)
     hinit0       :      0.46s CPU      0.47s WALL (       1 calls)

     Called by electrons:
     c_bands      :   1420.73s CPU   1438.18s WALL (     110 calls)
     sum_band     :     29.01s CPU     29.83s WALL (     110 calls)
     v_of_rho     :      9.32s CPU      9.59s WALL (     112 calls)
     newd         :      3.47s CPU      3.83s WALL (     111 calls)
     PAW_pot      :     24.89s CPU     25.33s WALL (     112 calls)
     mix_rho      :      1.18s CPU      1.22s WALL (     110 calls)

     Called by c_bands:
     init_us_2    :     10.61s CPU     10.79s WALL (    2410 calls)
     rcgdiagg     :   1365.42s CPU   1381.37s WALL (     222 calls)
     wfcrot       :     54.26s CPU     55.50s WALL (     216 calls)

     Called by sum_band:
     sum_band:bec :      0.12s CPU      0.13s WALL (     220 calls)
     addusdens    :      3.86s CPU      4.23s WALL (     110 calls)

     Called by *cgdiagg:
     h_psi        :    713.67s CPU    722.75s WALL (  123436 calls)
     s_psi        :    389.88s CPU    394.62s WALL (  246656 calls)
     rdiaghg      :      3.78s CPU      3.88s WALL (     216 calls)

     Called by h_psi:
     h_psi:pot    :    680.20s CPU    688.77s WALL (  123436 calls)
     h_psi:calbec :    255.01s CPU    257.79s WALL (  123436 calls)
     vloc_psi     :    217.64s CPU    221.57s WALL (  123436 calls)
     add_vuspsi   :    206.07s CPU    208.25s WALL (  123436 calls)
     hs_1psi      :    869.22s CPU    879.63s WALL (  123220 calls)
     s_1psi       :    404.08s CPU    408.31s WALL (  123220 calls)

     General routines
     calbec       :    486.68s CPU    492.61s WALL (  273904 calls)
     fft          :      6.29s CPU      6.36s WALL (    1889 calls)
     ffts         :      0.37s CPU      0.38s WALL (     220 calls)
     fftw         :    217.81s CPU    221.71s WALL (  326928 calls)
     fftc         :   1445.22s CPU   1454.76s WALL (  386120 calls)
     fftcw        :      2.65s CPU      2.70s WALL (    3928 calls)
 
     Parallel routines
     fft_scatt_xy :     25.97s CPU     26.21s WALL (  719085 calls)
     fft_scatt_yz :   1275.78s CPU   1284.97s WALL (  719085 calls)

     EXX routines
     exx_grid     :      0.00s CPU      0.00s WALL (       1 calls)
     exxinit      :      2.59s CPU      2.67s WALL (       4 calls)
     vexx         :  19969.37s CPU  20074.11s WALL (       8 calls)
     matcalc      :     18.22s CPU     18.49s WALL (   27020 calls)
     aceupdate    :      0.05s CPU      0.05s WALL (       8 calls)
     vexxace      :     32.51s CPU     33.06s WALL (   26998 calls)
     aceinit      :  19969.49s CPU  20074.23s WALL (       8 calls)

     EXX+US  routines
     becxx        :      0.01s CPU      0.01s WALL (       4 calls)
     addusxx      :   8992.25s CPU   9034.20s WALL (  386120 calls)
     newdxx       :   8881.52s CPU   8930.55s WALL (  386120 calls)
     qvan_init    :      0.09s CPU      0.12s WALL (       8 calls)
     nlxx_pot     :     12.06s CPU     12.23s WALL (    1960 calls)

     EXX+PAW routines
     PAW_newdxx   :    577.31s CPU    581.76s WALL (  386120 calls)
 
     PWSCF        :      5h57m CPU      6h 0m WALL

 
   This run was terminated on:   5:25:38  30Jul2021            

=------------------------------------------------------------------------------=
   JOB DONE.
=------------------------------------------------------------------------------=
