
     Program PWSCF v.6.4.1 starts on 22Sep2021 at  7:32:32 

     This program is part of the open-source Quantum ESPRESSO suite
     for quantum simulation of materials; please cite
         "P. Giannozzi et al., J. Phys.:Condens. Matter 21 395502 (2009);
         "P. Giannozzi et al., J. Phys.:Condens. Matter 29 465901 (2017);
          URL http://www.quantum-espresso.org", 
     in publications or presentations arising from this work. More details at
     http://www.quantum-espresso.org/quote

     Parallel version (MPI), running on   128 processors

     MPI processes distributed on     4 nodes
     R & G space division:  proc/nbgrp/npool/nimage =     128
     Waiting for input...
     Reading input from standard input

     Current dimensions of program PWSCF are:
     Max number of different atomic species (ntypx) = 10
     Max number of k-points (npk) =  40000
     Max angular momentum in pseudopotentials (lmaxx) =  3

     IMPORTANT: XC functional enforced from input :
     Exchange-correlation      = HSE ( 1  4 12  4 0 0)
     EXX-fraction              =        0.25
     Using LIBXC version       =    4   3   4
     Any further DFT definition will be discarded
     Please, verify this is what you really want

               file N.pbe-n-kjpaw_psl.1.0.0.UPF: wavefunction(s)  2S renormalized
               file C.pbe-n-kjpaw_psl.1.0.0.UPF: wavefunction(s)  2S 2P renormalized
               file C.pbe-n-kjpaw_psl.1.0.0.UPF: wavefunction(s)  2S 2P renormalized
               file C.pbe-n-kjpaw_psl.1.0.0.UPF: wavefunction(s)  2S 2P renormalized
     EXX fraction changed:   0.32
     EXX Screening parameter changed:    0.0455000

     --------------------------------------------
     Parameters for DFT-D3 Dispersion Correction:
     --------------------------------------------
       Reference C6 values for interpolation: 

         atom   Coordination number   C6
         B          0.000           214.36
         B          0.971           150.74
         B          1.944           106.23
         B          2.913            62.89
         B          4.586            56.06
         C1         0.000            98.23
         C1         0.987            86.49
         C1         1.998            58.72
         C1         2.999            51.56
         C1         3.984            36.41
         C2         0.000            98.23
         C2         0.987            86.49
         C2         1.998            58.72
         C2         2.999            51.56
         C2         3.984            36.41
         C3         0.000            98.23
         C3         0.987            86.49
         C3         1.998            58.72
         C3         2.999            51.56
         C3         3.984            36.41
         N          0.000            50.54
         N          0.994            44.25
         N          2.014            39.35
         N          2.990            31.16

       Values used:

         atom   Coordination number  R0_AB[au]  C6      C8
         B          3.325            3.039     62.90   2506.24
         B          3.317            3.039     62.90   2506.44
         B          3.317            3.039     62.90   2506.43
         B          3.325            3.039     62.90   2506.25
         B          3.327            3.039     62.90   2506.21
         B          3.324            3.039     62.90   2506.27
         B          3.326            3.039     62.90   2506.22
         B          3.325            3.039     62.90   2506.26
         B          3.323            3.039     62.90   2506.30
         B          3.303            3.039     62.91   2506.76
         B          3.322            3.039     62.90   2506.33
         B          3.329            3.039     62.90   2506.15
         B          3.325            3.039     62.90   2506.24
         B          3.324            3.039     62.90   2506.27
         B          3.325            3.039     62.90   2506.26
         B          3.327            3.039     62.90   2506.21
         B          3.297            3.039     62.91   2506.88
         B          3.297            3.039     62.91   2506.90
         B          3.336            3.039     62.89   2505.99
         B          3.329            3.039     62.90   2506.15
         B          3.327            3.039     62.90   2506.21
         B          3.323            3.039     62.90   2506.31
         B          3.319            3.039     62.90   2506.40
         B          3.314            3.039     62.90   2506.51
         C2         3.249            2.750     49.43   1429.56
         B          3.297            3.039     62.91   2506.90
         B          3.322            3.039     62.90   2506.33
         B          3.325            3.039     62.90   2506.25
         B          3.321            3.039     62.90   2506.36
         B          3.319            3.039     62.90   2506.39
         B          3.315            3.039     62.90   2506.50
         B          3.314            3.039     62.90   2506.51
         B          3.297            3.039     62.91   2506.88
         B          3.303            3.039     62.91   2506.76
         B          3.317            3.039     62.90   2506.43
         B          3.316            3.039     62.90   2506.45
         B          3.318            3.039     62.90   2506.42
         B          3.319            3.039     62.90   2506.39
         B          3.319            3.039     62.90   2506.40
         B          3.327            3.039     62.90   2506.21
         B          3.323            3.039     62.90   2506.30
         B          3.317            3.039     62.90   2506.44
         B          3.319            3.039     62.90   2506.40
         B          3.316            3.039     62.90   2506.45
         B          3.321            3.039     62.90   2506.36
         B          3.323            3.039     62.90   2506.31
         B          3.325            3.039     62.90   2506.26
         B          3.325            3.039     62.90   2506.26
         B          3.325            3.039     62.90   2506.24
         N          3.129            2.478     31.22    688.74
         N          3.128            2.478     31.22    688.75
         N          3.125            2.478     31.22    688.79
         N          3.128            2.478     31.22    688.75
         N          3.130            2.478     31.22    688.73
         N          3.129            2.478     31.22    688.75
         N          3.129            2.478     31.22    688.75
         N          3.129            2.478     31.22    688.75
         N          3.129            2.478     31.22    688.74
         N          3.124            2.478     31.22    688.79
         N          3.123            2.478     31.22    688.80
         N          3.132            2.478     31.22    688.72
         N          3.130            2.478     31.22    688.74
         N          3.129            2.478     31.22    688.75
         N          3.130            2.478     31.22    688.74
         N          3.129            2.478     31.22    688.74
         N          3.132            2.478     31.22    688.71
         C1         3.192            2.750     50.14   1450.24
         N          3.134            2.478     31.22    688.70
         N          3.132            2.478     31.22    688.72
         N          3.130            2.478     31.22    688.73
         N          3.129            2.478     31.22    688.75
         N          3.127            2.478     31.22    688.76
         N          3.126            2.478     31.22    688.78
         N          3.155            2.478     31.21    688.52
         C3         3.192            2.750     50.14   1450.24
         N          3.123            2.478     31.22    688.80
         N          3.128            2.478     31.22    688.75
         N          3.127            2.478     31.22    688.77
         N          3.127            2.478     31.22    688.76
         N          3.127            2.478     31.22    688.77
         N          3.126            2.478     31.22    688.78
         N          3.132            2.478     31.22    688.71
         N          3.124            2.478     31.22    688.79
         N          3.125            2.478     31.22    688.79
         N          3.126            2.478     31.22    688.77
         N          3.126            2.478     31.22    688.77
         N          3.127            2.478     31.22    688.76
         N          3.127            2.478     31.22    688.76
         N          3.129            2.478     31.22    688.74
         N          3.129            2.478     31.22    688.74
         N          3.128            2.478     31.22    688.75
         N          3.129            2.478     31.22    688.74
         N          3.126            2.478     31.22    688.77
         N          3.127            2.478     31.22    688.77
         N          3.129            2.478     31.22    688.75
         N          3.130            2.478     31.22    688.74
         N          3.129            2.478     31.22    688.75
         N          3.129            2.478     31.22    688.74

         Molecular C6 ( Ry / a.u.^6 ) =    437698.51


     gamma-point specific algorithms are used
     Message from routine setup :
     BEWARE: nonlinear core correction is not consistent with hybrid XC

     Subspace diagonalization in iterative solution of the eigenvalue problem:
     one sub-group per band group will be used
     scalapack distributed-memory algorithm (size of sub-group:  8*  8 procs)

     EXX: grid of k+q points same as grid of k-points
 
     Parallelization info
     --------------------
     sticks:   dense  smooth     PW     G-vecs:    dense   smooth      PW
     Min          94      94     22                 9650     9650    1186
     Max          96      96     24                 9676     9676    1216
     Sum       12161   12161   3049              1236509  1236509  154657
 


     bravais-lattice index     =            0
     lattice parameter (alat)  =      33.2346  a.u.
     unit-cell volume          =   36184.4017 (a.u.)^3
     number of atoms/cell      =           98
     number of atomic types    =            5
     number of electrons       =       391.00
     number of Kohn-Sham states=          245
     kinetic-energy cutoff     =      40.0000  Ry
     charge density cutoff     =     160.0000  Ry
     cutoff for Fock operator  =     160.0000  Ry
     convergence threshold     =      1.0E-06
     mixing beta               =       0.7000
     number of iterations used =            8  plain     mixing
     Exchange-correlation      = HSE ( 1  4 12  4 0 0)
     EXX-fraction              =        0.32
     Using LIBXC version       =    4   3   4

     celldm(1)=  33.234611  celldm(2)=   0.000000  celldm(3)=   0.000000
     celldm(4)=   0.000000  celldm(5)=   0.000000  celldm(6)=   0.000000

     crystal axes: (cart. coord. in units of alat)
               a(1) = (   1.000640  -0.000349   0.000000 )  
               a(2) = (  -0.500622   0.866405   0.000000 )  
               a(3) = (   0.000000   0.000000   1.137204 )  

     reciprocal axes: (cart. coord. in units 2 pi/alat)
               b(1) = (  0.999562  0.577562  0.000000 )  
               b(2) = (  0.000402  1.154427  0.000000 )  
               b(3) = (  0.000000  0.000000  0.879350 )  


     PseudoPot. # 1 for B  read from file:
     ./pseudo/B.pbe-n-kjpaw_psl.1.0.0.UPF
     MD5 check sum: 8c825a5969375aca5c2c6ad5945b3059
     Pseudo is Projector augmented-wave + core cor, Zval =  3.0
     Generated using "atomic" code by A. Dal Corso v.6.3
     Shape of augmentation charge: PSQ
     Using radial grid of 1059 points,  4 beta functions with: 
                l(1) =   0
                l(2) =   0
                l(3) =   1
                l(4) =   1
     Q(r) pseudized with 0 coefficients 


     PseudoPot. # 2 for N  read from file:
     ./pseudo/N.pbe-n-kjpaw_psl.1.0.0.UPF
     MD5 check sum: 14c48229446f9f2d411169a3abcbc3fa
     Pseudo is Projector augmented-wave + core cor, Zval =  5.0
     Generated using "atomic" code by A. Dal Corso v.6.3
     Shape of augmentation charge: PSQ
     Using radial grid of 1085 points,  4 beta functions with: 
                l(1) =   0
                l(2) =   0
                l(3) =   1
                l(4) =   1
     Q(r) pseudized with 0 coefficients 


     PseudoPot. # 3 for C  read from file:
     ./pseudo/C.pbe-n-kjpaw_psl.1.0.0.UPF
     MD5 check sum: 5f16ad9a65e90284d1d834d4ab3b0f7d
     Pseudo is Projector augmented-wave + core cor, Zval =  4.0
     Generated using "atomic" code by A. Dal Corso v.6.3
     Shape of augmentation charge: PSQ
     Using radial grid of 1073 points,  4 beta functions with: 
                l(1) =   0
                l(2) =   0
                l(3) =   1
                l(4) =   1
     Q(r) pseudized with 0 coefficients 


     PseudoPot. # 4 for C  read from file:
     ./pseudo/C.pbe-n-kjpaw_psl.1.0.0.UPF
     MD5 check sum: 5f16ad9a65e90284d1d834d4ab3b0f7d
     Pseudo is Projector augmented-wave + core cor, Zval =  4.0
     Generated using "atomic" code by A. Dal Corso v.6.3
     Shape of augmentation charge: PSQ
     Using radial grid of 1073 points,  4 beta functions with: 
                l(1) =   0
                l(2) =   0
                l(3) =   1
                l(4) =   1
     Q(r) pseudized with 0 coefficients 


     PseudoPot. # 5 for C  read from file:
     ./pseudo/C.pbe-n-kjpaw_psl.1.0.0.UPF
     MD5 check sum: 5f16ad9a65e90284d1d834d4ab3b0f7d
     Pseudo is Projector augmented-wave + core cor, Zval =  4.0
     Generated using "atomic" code by A. Dal Corso v.6.3
     Shape of augmentation charge: PSQ
     Using radial grid of 1073 points,  4 beta functions with: 
                l(1) =   0
                l(2) =   0
                l(3) =   1
                l(4) =   1
     Q(r) pseudized with 0 coefficients 


     atomic species   valence    mass     pseudopotential
        B              3.00    10.00000     B ( 1.00)
        N              5.00    14.00000     N ( 1.00)
        C1             4.00    12.00000     C ( 1.00)
        C2             4.00    12.00000     C ( 1.00)
        C3             4.00    12.00000     C ( 1.00)

     Starting magnetic structure 
     atomic species   magnetization
        B            0.000
        N            0.000
        C1           1.000
        C2           0.000
        C3           0.000

     No symmetry found



   Cartesian axes

     site n.     atom                  positions (alat units)
         1           B   tau(   1) = (  -0.0000233   0.0821617   0.5686018  )
         2           B   tau(   2) = (  -0.0713866   0.2062009   0.5686018  )
         3           B   tau(   3) = (  -0.1430783   0.3301031   0.5686018  )
         4           B   tau(   4) = (  -0.2149375   0.4537632   0.5686018  )
         5           B   tau(   5) = (  -0.2861755   0.5775434   0.5686018  )
         6           B   tau(   6) = (  -0.3574872   0.7014372   0.5686018  )
         7           B   tau(   7) = (  -0.4290711   0.8250953   0.5686018  )
         8           B   tau(   8) = (   0.1428779   0.0818580   0.5686018  )
         9           B   tau(   9) = (   0.0712222   0.2053694   0.5686018  )
        10           B   tau(  10) = (   0.0002327   0.3301362   0.5686018  )
        11           B   tau(  11) = (  -0.0725304   0.4539838   0.5686018  )
        12           B   tau(  12) = (  -0.1441451   0.5777657   0.5686018  )
        13           B   tau(  13) = (  -0.2149187   0.7014543   0.5686018  )
        14           B   tau(  14) = (  -0.2861881   0.8249309   0.5686018  )
        15           B   tau(  15) = (   0.2862131   0.0818140   0.5686018  )
        16           B   tau(  16) = (   0.2148456   0.2045690   0.5686018  )
        17           B   tau(  17) = (   0.1436176   0.3272083   0.5686018  )
        18           B   tau(  18) = (   0.0696289   0.4562046   0.5686018  )
        19           B   tau(  19) = (  -0.0025925   0.5788678   0.5686018  )
        20           B   tau(  20) = (  -0.0724144   0.7020070   0.5686018  )
        21           B   tau(  21) = (  -0.1432370   0.8251201   0.5686018  )
        22           B   tau(  22) = (   0.4289841   0.0823577   0.5686018  )
        23           B   tau(  23) = (   0.3574544   0.2061244   0.5686018  )
        24           B   tau(  24) = (   0.2853662   0.3296798   0.5686018  )
        25           C2  tau(  25) = (   0.2152526   0.4530948   0.5686018  )
        26           B   tau(  26) = (   0.1397476   0.5776538   0.5686018  )
        27           B   tau(  27) = (   0.0705912   0.7018778   0.5686018  )
        28           B   tau(  28) = (  -0.0004212   0.8253162   0.5686018  )
        29           B   tau(  29) = (   0.5717760   0.0822445   0.5686018  )
        30           B   tau(  30) = (   0.5003561   0.2060412   0.5686018  )
        31           B   tau(  31) = (   0.4287233   0.3298475   0.5686018  )
        32           B   tau(  32) = (   0.3571899   0.4540822   0.5686018  )
        33           B   tau(  33) = (   0.2884561   0.5780758   0.5686018  )
        34           B   tau(  34) = (   0.2142280   0.7007869   0.5686018  )
        35           B   tau(  35) = (   0.1426011   0.8249144   0.5686018  )
        36           B   tau(  36) = (   0.7147681   0.0821485   0.5686018  )
        37           B   tau(  37) = (   0.6432419   0.2059952   0.5686018  )
        38           B   tau(  38) = (   0.5717591   0.3297149   0.5686018  )
        39           B   tau(  39) = (   0.5002362   0.4534298   0.5686018  )
        40           B   tau(  40) = (   0.4302789   0.5777103   0.5686018  )
        41           B   tau(  41) = (   0.3577740   0.7016916   0.5686018  )
        42           B   tau(  42) = (   0.2857495   0.8247786   0.5686018  )
        43           B   tau(  43) = (   0.8578476   0.0820925   0.5686018  )
        44           B   tau(  44) = (   0.7862593   0.2059749   0.5686018  )
        45           B   tau(  45) = (   0.7146801   0.3297618   0.5686018  )
        46           B   tau(  46) = (   0.6431861   0.4533666   0.5686018  )
        47           B   tau(  47) = (   0.5722715   0.5772817   0.5686018  )
        48           B   tau(  48) = (   0.5005658   0.7013916   0.5686018  )
        49           B   tau(  49) = (   0.4288522   0.8249958   0.5686018  )
        50           N   tau(  50) = (   0.0714331   0.0409759   0.5686018  )
        51           N   tau(  51) = (  -0.0001876   0.1644906   0.5686018  )
        52           N   tau(  52) = (  -0.0713557   0.2888776   0.5686018  )
        53           N   tau(  53) = (  -0.1436341   0.4125195   0.5686018  )
        54           N   tau(  54) = (  -0.2151393   0.5362333   0.5686018  )
        55           N   tau(  55) = (  -0.2862233   0.6600795   0.5686018  )
        56           N   tau(  56) = (  -0.3576342   0.7838513   0.5686018  )
        57           N   tau(  57) = (   0.2145160   0.0409095   0.5686018  )
        58           N   tau(  58) = (   0.1429488   0.1642146   0.5686018  )
        59           N   tau(  59) = (   0.0713660   0.2876061   0.5686018  )
        60           N   tau(  60) = (  -0.0007870   0.4130708   0.5686018  )
        61           N   tau(  61) = (  -0.0731783   0.5365814   0.5686018  )
        62           N   tau(  62) = (  -0.1436888   0.6603299   0.5686018  )
        63           N   tau(  63) = (  -0.2147393   0.7838935   0.5686018  )
        64           N   tau(  64) = (   0.3576142   0.0410192   0.5686018  )
        65           N   tau(  65) = (   0.2863754   0.1641474   0.5686018  )
        66           N   tau(  66) = (   0.2150130   0.2867948   0.5686018  )
        67           C1  tau(  67) = (   0.1457790   0.4134614   0.5686018  )
        68           N   tau(  68) = (   0.0679304   0.5381514   0.5686018  )
        69           N   tau(  69) = (  -0.0012643   0.6611402   0.5686018  )
        70           N   tau(  70) = (  -0.0719434   0.7842561   0.5686018  )
        71           N   tau(  71) = (   0.5003317   0.0412613   0.5686018  )
        72           N   tau(  72) = (   0.4288916   0.1649165   0.5686018  )
        73           N   tau(  73) = (   0.3571532   0.2888803   0.5686018  )
        74           N   tau(  74) = (   0.2850449   0.4128002   0.5686018  )
        75           C3  tau(  75) = (   0.2148394   0.5330775   0.5686018  )
        76           N   tau(  76) = (   0.1418947   0.6602027   0.5686018  )
        77           N   tau(  77) = (   0.0709485   0.7841876   0.5686018  )
        78           N   tau(  78) = (   0.6432797   0.0409898   0.5686018  )
        79           N   tau(  79) = (   0.5717930   0.1647678   0.5686018  )
        80           N   tau(  80) = (   0.5002145   0.2885720   0.5686018  )
        81           N   tau(  81) = (   0.4284168   0.4123125   0.5686018  )
        82           N   tau(  82) = (   0.3591528   0.5364523   0.5686018  )
        83           N   tau(  83) = (   0.2866267   0.6604486   0.5686018  )
        84           N   tau(  84) = (   0.2141647   0.7834136   0.5686018  )
        85           N   tau(  85) = (   0.7862879   0.0408973   0.5686018  )
        86           N   tau(  86) = (   0.7147525   0.1647085   0.5686018  )
        87           N   tau(  87) = (   0.6432213   0.2884853   0.5686018  )
        88           N   tau(  88) = (   0.5716419   0.4121672   0.5686018  )
        89           N   tau(  89) = (   0.5010498   0.5359745   0.5686018  )
        90           N   tau(  90) = (   0.4292784   0.6601520   0.5686018  )
        91           N   tau(  91) = (   0.3574711   0.7839737   0.5686018  )
        92           N   tau(  92) = (   0.9292454   0.0408710   0.5686018  )
        93           N   tau(  93) = (   0.8577438   0.1646625   0.5686018  )
        94           N   tau(  94) = (   0.7861596   0.2884650   0.5686018  )
        95           N   tau(  95) = (   0.7144506   0.4121259   0.5686018  )
        96           N   tau(  96) = (   0.6433014   0.5358440   0.5686018  )
        97           N   tau(  97) = (   0.5718474   0.6598256   0.5686018  )
        98           N   tau(  98) = (   0.5002484   0.7837058   0.5686018  )

     number of k points=     1
                       cart. coord. in units 2pi/alat
        k(    1) = (   0.0000000   0.0000000   0.0000000), wk =   1.0000000

     Dense  grid:   618255 G-vectors     FFT dimensions: ( 135, 135, 160)

     Occupations read from input 

      Spin-up

        1.0000   1.0000   1.0000   1.0000   1.0000   1.0000   1.0000   1.0000
        1.0000   1.0000   1.0000   1.0000   1.0000   1.0000   1.0000   1.0000
        1.0000   1.0000   1.0000   1.0000   1.0000   1.0000   1.0000   1.0000
        1.0000   1.0000   1.0000   1.0000   1.0000   1.0000   1.0000   1.0000
        1.0000   1.0000   1.0000   1.0000   1.0000   1.0000   1.0000   1.0000
        1.0000   1.0000   1.0000   1.0000   1.0000   1.0000   1.0000   1.0000
        1.0000   1.0000   1.0000   1.0000   1.0000   1.0000   1.0000   1.0000
        1.0000   1.0000   1.0000   1.0000   1.0000   1.0000   1.0000   1.0000
        1.0000   1.0000   1.0000   1.0000   1.0000   1.0000   1.0000   1.0000
        1.0000   1.0000   1.0000   1.0000   1.0000   1.0000   1.0000   1.0000
        1.0000   1.0000   1.0000   1.0000   1.0000   1.0000   1.0000   1.0000
        1.0000   1.0000   1.0000   1.0000   1.0000   1.0000   1.0000   1.0000
        1.0000   1.0000   1.0000   1.0000   1.0000   1.0000   1.0000   1.0000
        1.0000   1.0000   1.0000   1.0000   1.0000   1.0000   1.0000   1.0000
        1.0000   1.0000   1.0000   1.0000   1.0000   1.0000   1.0000   1.0000
        1.0000   1.0000   1.0000   1.0000   1.0000   1.0000   1.0000   1.0000
        1.0000   1.0000   1.0000   1.0000   1.0000   1.0000   1.0000   1.0000
        1.0000   1.0000   1.0000   1.0000   1.0000   1.0000   1.0000   1.0000
        1.0000   1.0000   1.0000   1.0000   1.0000   1.0000   1.0000   1.0000
        1.0000   1.0000   1.0000   1.0000   1.0000   1.0000   1.0000   1.0000
        1.0000   1.0000   1.0000   1.0000   1.0000   1.0000   1.0000   1.0000
        1.0000   1.0000   1.0000   1.0000   1.0000   1.0000   1.0000   1.0000
        1.0000   1.0000   1.0000   1.0000   1.0000   1.0000   1.0000   1.0000
        1.0000   1.0000   1.0000   1.0000   1.0000   1.0000   1.0000   1.0000
        1.0000   1.0000   1.0000   1.0000   0.0000   0.0000   0.0000   0.0000
        0.0000   0.0000   0.0000   0.0000   0.0000   0.0000   0.0000   0.0000
        0.0000   0.0000   0.0000   0.0000   0.0000   0.0000   0.0000   0.0000
        0.0000   0.0000   0.0000   0.0000   0.0000   0.0000   0.0000   0.0000
        0.0000   0.0000   0.0000   0.0000   0.0000   0.0000   0.0000   0.0000
        0.0000   0.0000   0.0000   0.0000   0.0000   0.0000   0.0000   0.0000
        0.0000   0.0000   0.0000   0.0000   0.0000

      Spin-down

        1.0000   1.0000   1.0000   1.0000   1.0000   1.0000   1.0000   1.0000
        1.0000   1.0000   1.0000   1.0000   1.0000   1.0000   1.0000   1.0000
        1.0000   1.0000   1.0000   1.0000   1.0000   1.0000   1.0000   1.0000
        1.0000   1.0000   1.0000   1.0000   1.0000   1.0000   1.0000   1.0000
        1.0000   1.0000   1.0000   1.0000   1.0000   1.0000   1.0000   1.0000
        1.0000   1.0000   1.0000   1.0000   1.0000   1.0000   1.0000   1.0000
        1.0000   1.0000   1.0000   1.0000   1.0000   1.0000   1.0000   1.0000
        1.0000   1.0000   1.0000   1.0000   1.0000   1.0000   1.0000   1.0000
        1.0000   1.0000   1.0000   1.0000   1.0000   1.0000   1.0000   1.0000
        1.0000   1.0000   1.0000   1.0000   1.0000   1.0000   1.0000   1.0000
        1.0000   1.0000   1.0000   1.0000   1.0000   1.0000   1.0000   1.0000
        1.0000   1.0000   1.0000   1.0000   1.0000   1.0000   1.0000   1.0000
        1.0000   1.0000   1.0000   1.0000   1.0000   1.0000   1.0000   1.0000
        1.0000   1.0000   1.0000   1.0000   1.0000   1.0000   1.0000   1.0000
        1.0000   1.0000   1.0000   1.0000   1.0000   1.0000   1.0000   1.0000
        1.0000   1.0000   1.0000   1.0000   1.0000   1.0000   1.0000   1.0000
        1.0000   1.0000   1.0000   1.0000   1.0000   1.0000   1.0000   1.0000
        1.0000   1.0000   1.0000   1.0000   1.0000   1.0000   1.0000   1.0000
        1.0000   1.0000   1.0000   1.0000   1.0000   1.0000   1.0000   1.0000
        1.0000   1.0000   1.0000   1.0000   1.0000   1.0000   1.0000   1.0000
        1.0000   1.0000   1.0000   1.0000   1.0000   1.0000   1.0000   1.0000
        1.0000   1.0000   1.0000   1.0000   1.0000   1.0000   1.0000   1.0000
        1.0000   1.0000   1.0000   1.0000   1.0000   1.0000   1.0000   1.0000
        1.0000   1.0000   1.0000   1.0000   1.0000   1.0000   1.0000   1.0000
        1.0000   1.0000   1.0000   0.0000   0.0000   0.0000   0.0000   0.0000
        0.0000   0.0000   0.0000   0.0000   0.0000   0.0000   0.0000   0.0000
        0.0000   0.0000   0.0000   0.0000   0.0000   0.0000   0.0000   0.0000
        0.0000   0.0000   0.0000   0.0000   0.0000   0.0000   0.0000   0.0000
        0.0000   0.0000   0.0000   0.0000   0.0000   0.0000   0.0000   0.0000
        0.0000   0.0000   0.0000   0.0000   0.0000   0.0000   0.0000   0.0000
        0.0000   0.0000   0.0000   0.0000   0.0000

     Estimated max dynamical RAM per process >     193.15 MB

     Estimated total dynamical RAM >      24.14 GB
     Generating pointlists ...
     new r_m :   0.0336 (alat units)  1.1164 (a.u.) for type    1
     new r_m :   0.0332 (alat units)  1.1048 (a.u.) for type    2
     new r_m :   0.0330 (alat units)  1.0965 (a.u.) for type    3
     new r_m :   0.0330 (alat units)  1.0965 (a.u.) for type    4
     new r_m :   0.0330 (alat units)  1.0965 (a.u.) for type    5

     Check: negative core charge=   -0.000006

     Initial potential from superposition of free atoms

     starting charge  390.98597, renormalised to  391.00000

     negative rho (up, down):  5.502E-02 5.967E-02
     Starting wfcs are  392 randomized atomic wfcs

     total cpu time spent up to now is        5.0 secs

     Self-consistent Calculation

     iteration #  1     ecut=    40.00 Ry     beta= 0.70
     CG style diagonalization
     ethr =  1.00E-02,  avg # of iterations =  3.1

     negative rho (up, down):  3.273E-01 9.894E-03

     total cpu time spent up to now is       26.8 secs

     total energy              =   -1933.37197618 Ry
     Harris-Foulkes estimate   =   -1946.58420753 Ry
     estimated scf accuracy    <      19.99694945 Ry

     total magnetization       =     1.00 Bohr mag/cell
     absolute magnetization    =     1.52 Bohr mag/cell

     iteration #  2     ecut=    40.00 Ry     beta= 0.70
     CG style diagonalization
     ethr =  5.11E-03,  avg # of iterations =  4.0

     negative rho (up, down):  3.630E-01 7.123E-03

     total cpu time spent up to now is       49.0 secs

     total energy              =   -1937.76165579 Ry
     Harris-Foulkes estimate   =   -1943.88764697 Ry
     estimated scf accuracy    <      11.99949714 Ry

     total magnetization       =     1.00 Bohr mag/cell
     absolute magnetization    =     1.37 Bohr mag/cell

     iteration #  3     ecut=    40.00 Ry     beta= 0.70
     CG style diagonalization
     ethr =  3.07E-03,  avg # of iterations =  3.8

     negative rho (up, down):  4.318E-01 6.449E-03

     total cpu time spent up to now is       69.0 secs

     total energy              =   -1940.25071740 Ry
     Harris-Foulkes estimate   =   -1940.44318046 Ry
     estimated scf accuracy    <       0.35107293 Ry

     total magnetization       =     1.00 Bohr mag/cell
     absolute magnetization    =     1.22 Bohr mag/cell

     iteration #  4     ecut=    40.00 Ry     beta= 0.70
     CG style diagonalization
     c_bands:  5 eigenvalues not converged
     c_bands:  3 eigenvalues not converged
     ethr =  8.98E-05,  avg # of iterations =  4.9

     negative rho (up, down):  4.606E-01 5.646E-03

     total cpu time spent up to now is       94.3 secs

     total energy              =   -1940.33774212 Ry
     Harris-Foulkes estimate   =   -1940.52679332 Ry
     estimated scf accuracy    <       0.48104618 Ry

     total magnetization       =     1.00 Bohr mag/cell
     absolute magnetization    =     1.18 Bohr mag/cell

     iteration #  5     ecut=    40.00 Ry     beta= 0.70
     CG style diagonalization
     ethr =  8.98E-05,  avg # of iterations =  3.4

     negative rho (up, down):  4.742E-01 5.356E-03

     total cpu time spent up to now is      111.2 secs

     total energy              =   -1940.41234091 Ry
     Harris-Foulkes estimate   =   -1940.41875327 Ry
     estimated scf accuracy    <       0.01765333 Ry

     total magnetization       =     1.00 Bohr mag/cell
     absolute magnetization    =     1.19 Bohr mag/cell

     iteration #  6     ecut=    40.00 Ry     beta= 0.70
     CG style diagonalization
     c_bands:  1 eigenvalues not converged
     c_bands:  5 eigenvalues not converged
     ethr =  4.51E-06,  avg # of iterations =  6.4

     negative rho (up, down):  4.859E-01 5.413E-03

     total cpu time spent up to now is      144.6 secs

     total energy              =   -1940.41802118 Ry
     Harris-Foulkes estimate   =   -1940.42003992 Ry
     estimated scf accuracy    <       0.00791600 Ry

     total magnetization       =     1.00 Bohr mag/cell
     absolute magnetization    =     1.21 Bohr mag/cell

     iteration #  7     ecut=    40.00 Ry     beta= 0.70
     CG style diagonalization
     c_bands:  2 eigenvalues not converged
     c_bands:  4 eigenvalues not converged
     ethr =  2.02E-06,  avg # of iterations =  5.7

     negative rho (up, down):  4.873E-01 5.437E-03

     total cpu time spent up to now is      173.1 secs

     total energy              =   -1940.41991229 Ry
     Harris-Foulkes estimate   =   -1940.42019573 Ry
     estimated scf accuracy    <       0.00109277 Ry

     total magnetization       =     1.00 Bohr mag/cell
     absolute magnetization    =     1.20 Bohr mag/cell

     iteration #  8     ecut=    40.00 Ry     beta= 0.70
     CG style diagonalization
     c_bands:  1 eigenvalues not converged
     c_bands:  2 eigenvalues not converged
     ethr =  2.79E-07,  avg # of iterations =  3.5

     negative rho (up, down):  4.869E-01 5.491E-03

     total cpu time spent up to now is      190.5 secs

     total energy              =   -1940.42002510 Ry
     Harris-Foulkes estimate   =   -1940.42011127 Ry
     estimated scf accuracy    <       0.00032439 Ry

     total magnetization       =     1.00 Bohr mag/cell
     absolute magnetization    =     1.20 Bohr mag/cell

     iteration #  9     ecut=    40.00 Ry     beta= 0.70
     CG style diagonalization
     c_bands:  1 eigenvalues not converged
     ethr =  8.30E-08,  avg # of iterations =  3.8

     negative rho (up, down):  4.867E-01 5.531E-03

     total cpu time spent up to now is      210.0 secs

     total energy              =   -1940.42015327 Ry
     Harris-Foulkes estimate   =   -1940.42013267 Ry
     estimated scf accuracy    <       0.00004146 Ry

     total magnetization       =     1.00 Bohr mag/cell
     absolute magnetization    =     1.20 Bohr mag/cell

     iteration # 10     ecut=    40.00 Ry     beta= 0.70
     CG style diagonalization
     ethr =  1.06E-08,  avg # of iterations =  3.7

     negative rho (up, down):  4.866E-01 5.550E-03

     total cpu time spent up to now is      228.7 secs

     total energy              =   -1940.42016249 Ry
     Harris-Foulkes estimate   =   -1940.42016930 Ry
     estimated scf accuracy    <       0.00003493 Ry

     total magnetization       =     1.00 Bohr mag/cell
     absolute magnetization    =     1.20 Bohr mag/cell

     iteration # 11     ecut=    40.00 Ry     beta= 0.70
     CG style diagonalization
     ethr =  8.93E-09,  avg # of iterations =  3.3

     negative rho (up, down):  4.868E-01 5.558E-03

     total cpu time spent up to now is      244.2 secs

     total energy              =   -1940.42016644 Ry
     Harris-Foulkes estimate   =   -1940.42016861 Ry
     estimated scf accuracy    <       0.00000509 Ry

     total magnetization       =     1.00 Bohr mag/cell
     absolute magnetization    =     1.20 Bohr mag/cell

     iteration # 12     ecut=    40.00 Ry     beta= 0.70
     CG style diagonalization
     ethr =  1.30E-09,  avg # of iterations =  3.9

     negative rho (up, down):  4.867E-01 5.557E-03
 
     Magnetic moment per site:
     atom:    1    charge:    0.8506    magn:   -0.0000    constr:    0.0000
     atom:    2    charge:    0.8460    magn:    0.0003    constr:    0.0000
     atom:    3    charge:    0.8474    magn:    0.0007    constr:    0.0000
     atom:    4    charge:    0.8499    magn:   -0.0000    constr:    0.0000
     atom:    5    charge:    0.8524    magn:    0.0000    constr:    0.0000
     atom:    6    charge:    0.8504    magn:    0.0001    constr:    0.0000
     atom:    7    charge:    0.8511    magn:   -0.0000    constr:    0.0000
     atom:    8    charge:    0.8498    magn:    0.0001    constr:    0.0000
     atom:    9    charge:    0.8509    magn:   -0.0003    constr:    0.0000
     atom:   10    charge:    0.8407    magn:    0.0030    constr:    0.0000
     atom:   11    charge:    0.8473    magn:    0.0005    constr:    0.0000
     atom:   12    charge:    0.8537    magn:    0.0001    constr:    0.0000
     atom:   13    charge:    0.8529    magn:   -0.0000    constr:    0.0000
     atom:   14    charge:    0.8504    magn:    0.0001    constr:    0.0000
     atom:   15    charge:    0.8506    magn:   -0.0001    constr:    0.0000
     atom:   16    charge:    0.8542    magn:    0.0001    constr:    0.0000
     atom:   17    charge:    0.8611    magn:    0.0024    constr:    0.0000
     atom:   18    charge:    0.8515    magn:    0.0073    constr:    0.0000
     atom:   19    charge:    0.8613    magn:   -0.0003    constr:    0.0000
     atom:   20    charge:    0.8537    magn:    0.0001    constr:    0.0000
     atom:   21    charge:    0.8524    magn:    0.0000    constr:    0.0000
     atom:   22    charge:    0.8478    magn:    0.0000    constr:    0.0000
     atom:   23    charge:    0.8444    magn:    0.0003    constr:    0.0000
     atom:   24    charge:    0.8439    magn:   -0.0007    constr:    0.0000
     atom:   25    charge:    1.6282    magn:   -0.0264    constr:    0.0000
     atom:   26    charge:    0.8515    magn:    0.0074    constr:    0.0000
     atom:   27    charge:    0.8473    magn:    0.0005    constr:    0.0000
     atom:   28    charge:    0.8499    magn:   -0.0000    constr:    0.0000
     atom:   29    charge:    0.8472    magn:    0.0001    constr:    0.0000
     atom:   30    charge:    0.8485    magn:    0.0000    constr:    0.0000
     atom:   31    charge:    0.8486    magn:   -0.0003    constr:    0.0000
     atom:   32    charge:    0.8439    magn:   -0.0007    constr:    0.0000
     atom:   33    charge:    0.8610    magn:    0.0025    constr:    0.0000
     atom:   34    charge:    0.8406    magn:    0.0030    constr:    0.0000
     atom:   35    charge:    0.8474    magn:    0.0007    constr:    0.0000
     atom:   36    charge:    0.8467    magn:    0.0003    constr:    0.0000
     atom:   37    charge:    0.8466    magn:   -0.0000    constr:    0.0000
     atom:   38    charge:    0.8485    magn:    0.0000    constr:    0.0000
     atom:   39    charge:    0.8445    magn:    0.0003    constr:    0.0000
     atom:   40    charge:    0.8542    magn:    0.0001    constr:    0.0000
     atom:   41    charge:    0.8509    magn:   -0.0003    constr:    0.0000
     atom:   42    charge:    0.8460    magn:    0.0003    constr:    0.0000
     atom:   43    charge:    0.8460    magn:   -0.0000    constr:    0.0000
     atom:   44    charge:    0.8467    magn:    0.0003    constr:    0.0000
     atom:   45    charge:    0.8472    magn:    0.0001    constr:    0.0000
     atom:   46    charge:    0.8478    magn:    0.0000    constr:    0.0000
     atom:   47    charge:    0.8506    magn:   -0.0001    constr:    0.0000
     atom:   48    charge:    0.8498    magn:    0.0001    constr:    0.0000
     atom:   49    charge:    0.8506    magn:   -0.0000    constr:    0.0000
     atom:   50    charge:    2.7561    magn:    0.0005    constr:    0.0000
     atom:   51    charge:    2.7527    magn:   -0.0001    constr:    0.0000
     atom:   52    charge:    2.7468    magn:    0.0029    constr:    0.0000
     atom:   53    charge:    2.7548    magn:    0.0000    constr:    0.0000
     atom:   54    charge:    2.7552    magn:    0.0001    constr:    0.0000
     atom:   55    charge:    2.7523    magn:    0.0000    constr:    0.0000
     atom:   56    charge:    2.7513    magn:   -0.0001    constr:    0.0000
     atom:   57    charge:    2.7519    magn:    0.0003    constr:    0.0000
     atom:   58    charge:    2.7538    magn:    0.0039    constr:    0.0000
     atom:   59    charge:    2.7483    magn:    0.0065    constr:    0.0000
     atom:   60    charge:    2.7448    magn:    0.0123    constr:    0.0000
     atom:   61    charge:    2.7574    magn:    0.0012    constr:    0.0000
     atom:   62    charge:    2.7515    magn:   -0.0001    constr:    0.0000
     atom:   63    charge:    2.7523    magn:    0.0000    constr:    0.0000
     atom:   64    charge:    2.7574    magn:    0.0000    constr:    0.0000
     atom:   65    charge:    2.7569    magn:    0.0003    constr:    0.0000
     atom:   66    charge:    2.7564    magn:    0.0159    constr:    0.0000
     atom:   67    charge:    1.6559    magn:    0.1195    constr:    0.0000
     atom:   68    charge:    2.7632    magn:   -0.0023    constr:    0.0000
     atom:   69    charge:    2.7574    magn:    0.0012    constr:    0.0000
     atom:   70    charge:    2.7552    magn:    0.0001    constr:    0.0000
     atom:   71    charge:    2.7555    magn:    0.0000    constr:    0.0000
     atom:   72    charge:    2.7510    magn:    0.0002    constr:    0.0000
     atom:   73    charge:    2.7487    magn:    0.0013    constr:    0.0000
     atom:   74    charge:    2.7339    magn:   -0.0027    constr:    0.0000
     atom:   75    charge:    1.6559    magn:    0.1189    constr:    0.0000
     atom:   76    charge:    2.7447    magn:    0.0123    constr:    0.0000
     atom:   77    charge:    2.7548    magn:    0.0000    constr:    0.0000
     atom:   78    charge:    2.7536    magn:    0.0001    constr:    0.0000
     atom:   79    charge:    2.7515    magn:   -0.0000    constr:    0.0000
     atom:   80    charge:    2.7496    magn:   -0.0001    constr:    0.0000
     atom:   81    charge:    2.7488    magn:    0.0013    constr:    0.0000
     atom:   82    charge:    2.7564    magn:    0.0159    constr:    0.0000
     atom:   83    charge:    2.7484    magn:    0.0064    constr:    0.0000
     atom:   84    charge:    2.7468    magn:    0.0029    constr:    0.0000
     atom:   85    charge:    2.7510    magn:    0.0004    constr:    0.0000
     atom:   86    charge:    2.7521    magn:   -0.0001    constr:    0.0000
     atom:   87    charge:    2.7515    magn:   -0.0000    constr:    0.0000
     atom:   88    charge:    2.7510    magn:    0.0002    constr:    0.0000
     atom:   89    charge:    2.7569    magn:    0.0003    constr:    0.0000
     atom:   90    charge:    2.7538    magn:    0.0039    constr:    0.0000
     atom:   91    charge:    2.7527    magn:   -0.0001    constr:    0.0000
     atom:   92    charge:    2.7569    magn:   -0.0000    constr:    0.0000
     atom:   93    charge:    2.7510    magn:    0.0004    constr:    0.0000
     atom:   94    charge:    2.7536    magn:    0.0001    constr:    0.0000
     atom:   95    charge:    2.7555    magn:   -0.0000    constr:    0.0000
     atom:   96    charge:    2.7574    magn:    0.0000    constr:    0.0000
     atom:   97    charge:    2.7519    magn:    0.0003    constr:    0.0000
     atom:   98    charge:    2.7561    magn:    0.0005    constr:    0.0000

     total cpu time spent up to now is      264.3 secs

     End of self-consistent calculation

 ------ SPIN UP ------------


          k = 0.0000 0.0000 0.0000 ( 77329 PWs)   bands (ev):

   -21.7563 -21.5439 -21.3702 -21.3618 -21.3442 -21.2906 -21.2377 -20.8223
   -20.6288 -20.6119 -20.6106 -20.5278 -20.5155 -20.3922 -20.2722 -20.2646
   -20.2428 -20.1088 -20.0959 -19.5555 -19.3729 -19.3704 -19.3671 -19.3558
   -19.3541 -19.3457 -19.3456 -19.3133 -19.2961 -19.1426 -19.1353 -19.0015
   -18.9496 -18.9490 -18.9204 -18.7543 -18.7473 -18.5216 -18.5116 -18.5001
   -18.4883 -18.4274 -18.4103 -18.3579 -18.3341 -18.3310 -18.3166 -17.0426
   -15.0732 -13.0946 -12.7436 -12.7382 -12.7262 -12.6935 -12.6871 -12.6213
   -12.5444 -12.5120 -12.5072 -12.4566 -12.3940 -12.1316 -12.0460 -12.0329
   -12.0101 -11.9583 -11.9382 -11.5182 -11.4001 -11.3814 -11.3667 -11.3600
   -11.3482 -11.3389 -11.3364 -11.2943 -11.2817 -11.0995 -11.0276 -10.8504
   -10.6984 -10.6865 -10.6526 -10.6438 -10.4912 -10.0458 -10.0125  -9.9787
    -9.9087  -9.8607  -9.7944  -9.3740  -9.3048  -9.3024  -9.2810  -9.2582
    -9.2516  -9.1972  -9.0271  -8.9049  -8.8909  -8.8726  -8.8719  -8.8615
    -8.8592  -8.8554  -8.8435  -8.8277  -8.8055  -8.8046  -8.7982  -8.7975
    -8.7840  -8.7814  -8.7809  -8.7421  -8.7287  -8.6906  -8.6516  -8.6407
    -8.4573  -8.4456  -8.1702  -8.1628  -8.1621  -8.1134  -8.0668  -7.8961
    -7.8401  -7.8010  -7.7862  -7.7845  -7.7117  -7.7108  -7.5287  -7.4737
    -7.4717  -7.4402  -7.4243  -7.4132  -7.4123  -7.3817  -7.3708  -7.3252
    -7.3189  -7.3135  -7.2928  -7.2575  -7.2289  -7.2011  -7.1978  -7.0212
    -7.0035  -6.9719  -6.9359  -6.7921  -6.6334  -6.5133  -6.2134  -6.1658
    -6.1465  -6.1349  -6.0883  -6.0411  -6.0371  -6.0356  -6.0294  -6.0217
    -6.0160  -6.0147  -5.9912  -5.9743  -5.8750  -5.7930  -5.7926  -5.6758
    -5.4951  -5.4266  -5.4220  -5.4052  -5.3407  -5.2372  -5.0990  -5.0969
    -4.7734  -4.7478  -4.7325  -4.7266  -4.6673  -4.6314  -4.5218  -4.4862
    -4.4845  -4.4772  -4.3454  -3.5478   0.0811   0.1873   0.7096   0.7311
     0.7346   0.7409   0.7604   0.7652   0.7974   0.8177   0.8186   0.8219
     0.8255   0.8406   0.8487   0.8831   0.9038   0.9054   0.9327   0.9435
     0.9781   1.1631   1.2482   1.2493   1.2691   1.2773   1.3127   1.3288
     1.3310   1.3340   1.3439   1.3513   1.3901   1.4407   1.4425   1.4432
     1.4506   1.4530   1.4750   1.8864   2.1084   2.1132   2.1138   2.1254
     2.1346   2.1349   2.1443   2.3425   2.3570

 ------ SPIN DOWN ----------


          k = 0.0000 0.0000 0.0000 ( 77329 PWs)   bands (ev):

   -21.7510 -21.5405 -21.3681 -21.3604 -21.3433 -21.2828 -21.2301 -20.8196
   -20.6249 -20.6079 -20.6056 -20.5233 -20.5116 -20.3912 -20.2657 -20.2586
   -20.2395 -20.0966 -20.0861 -19.5487 -19.3692 -19.3689 -19.3650 -19.3540
   -19.3512 -19.3424 -19.3362 -19.3026 -19.2920 -19.1366 -19.1309 -18.9975
   -18.9457 -18.9442 -18.9161 -18.7443 -18.7382 -18.5150 -18.5081 -18.4948
   -18.4851 -18.4234 -18.4028 -18.3560 -18.3306 -18.3273 -18.3121 -16.8931
   -14.7836 -13.0530 -12.7417 -12.7342 -12.7238 -12.6904 -12.6853 -12.6174
   -12.5424 -12.5080 -12.5035 -12.4410 -12.3855 -12.1261 -12.0441 -12.0302
   -12.0053 -11.9467 -11.9300 -11.5083 -11.3941 -11.3773 -11.3650 -11.3586
   -11.3465 -11.3352 -11.3349 -11.2851 -11.2708 -11.0663 -11.0037 -10.8462
   -10.6965 -10.6847 -10.6427 -10.6386 -10.4782 -10.0416 -10.0081  -9.9732
    -9.8985  -9.8461  -9.7786  -9.3712  -9.2969  -9.2870  -9.2768  -9.2538
    -9.2494  -9.1931  -9.0244  -8.9007  -8.8869  -8.8703  -8.8700  -8.8572
    -8.8514  -8.8408  -8.8406  -8.8260  -8.8029  -8.8008  -8.7952  -8.7935
    -8.7808  -8.7793  -8.7777  -8.7199  -8.7144  -8.6396  -8.6296  -8.6236
    -8.4456  -8.4142  -8.1689  -8.1609  -8.1604  -8.0945  -8.0586  -7.8815
    -7.8254  -7.7917  -7.7772  -7.7736  -7.6897  -7.6771  -7.5223  -7.4722
    -7.4686  -7.4381  -7.4229  -7.4114  -7.4073  -7.3804  -7.3689  -7.3228
    -7.3047  -7.3001  -7.2831  -7.2501  -7.1846  -7.1672  -7.1540  -7.0049
    -7.0017  -6.9710  -6.9184  -6.7648  -6.6122  -6.4861  -6.2016  -6.1627
    -6.1447  -6.1322  -6.0725  -6.0348  -6.0321  -6.0285  -6.0181  -6.0177
    -6.0074  -5.9991  -5.9652  -5.9606  -5.8106  -5.7735  -5.7554  -5.6487
    -5.4834  -5.4174  -5.4101  -5.3967  -5.2686  -5.1836  -5.0376  -5.0205
    -4.7593  -4.7385  -4.7201  -4.7169  -4.6303  -4.6181  -4.5167  -4.4776
    -4.4750  -4.4691  -4.1695  -2.8670   0.1682   0.1893   0.7101   0.7364
     0.7407   0.7520   0.7767   0.7823   0.7960   0.8182   0.8217   0.8225
     0.8253   0.8405   0.8515   0.8887   0.9147   0.9200   0.9373   0.9607
     1.0273   1.1781   1.2586   1.2773   1.2805   1.3160   1.3282   1.3296
     1.3333   1.3404   1.3430   1.3695   1.3992   1.4398   1.4417   1.4423
     1.4494   1.4524   1.4781   1.8873   2.1084   2.1131   2.1139   2.1258
     2.1417   2.1530   2.1535   2.3428   2.3535

     highest occupied, lowest unoccupied level (ev):    -3.5478   -2.8670

!    total energy              =   -1940.42016821 Ry
     Harris-Foulkes estimate   =   -1940.42016837 Ry
     estimated scf accuracy    <       0.00000059 Ry

     total magnetization       =     1.00 Bohr mag/cell
     absolute magnetization    =     1.20 Bohr mag/cell

     convergence has been achieved in  12 iterations

     Using ACE for calculation of exact exchange

     EXX grid:   618255 G-vectors     FFT dimensions: ( 135, 135, 160)

     negative rho (up, down):  4.867E-01 5.557E-03

     EXX: now go back to refine exchange calculation

     total cpu time spent up to now is     4923.7 secs

     Self-consistent Calculation

     iteration #  1     ecut=    40.00 Ry     beta= 0.70
     CG style diagonalization
     c_bands:  3 eigenvalues not converged
     c_bands:  4 eigenvalues not converged
     ethr =  1.30E-09,  avg # of iterations = 26.1

     negative rho (up, down):  5.331E-01 5.736E-03

     total cpu time spent up to now is     5092.7 secs

     total energy              =   -1725.27035227 Ry
     Harris-Foulkes estimate   =   -1725.37235594 Ry
     estimated scf accuracy    <       0.13889304 Ry

     total magnetization       =     1.00 Bohr mag/cell
     absolute magnetization    =     1.30 Bohr mag/cell

     iteration #  2     ecut=    40.00 Ry     beta= 0.70
     CG style diagonalization
     ethr =  3.55E-05,  avg # of iterations =  4.7

     negative rho (up, down):  5.363E-01 5.723E-03

     total cpu time spent up to now is     5120.3 secs

     total energy              =   -1716.04382150 Ry
     Harris-Foulkes estimate   =   -1716.22080306 Ry
     estimated scf accuracy    <       0.51003316 Ry

     total magnetization       =     1.00 Bohr mag/cell
     absolute magnetization    =     1.31 Bohr mag/cell

     iteration #  3     ecut=    40.00 Ry     beta= 0.70
     CG style diagonalization
     ethr =  3.55E-05,  avg # of iterations =  3.8

     negative rho (up, down):  5.741E-01 5.857E-03

     total cpu time spent up to now is     5141.1 secs

     total energy              =   -1715.97549112 Ry
     Harris-Foulkes estimate   =   -1716.07225250 Ry
     estimated scf accuracy    <       0.12511189 Ry

     total magnetization       =     1.00 Bohr mag/cell
     absolute magnetization    =     1.31 Bohr mag/cell

     iteration #  4     ecut=    40.00 Ry     beta= 0.70
     CG style diagonalization
     ethr =  3.20E-05,  avg # of iterations =  3.8

     negative rho (up, down):  5.682E-01 5.779E-03

     total cpu time spent up to now is     5162.3 secs

     total energy              =   -1716.02256066 Ry
     Harris-Foulkes estimate   =   -1716.04587960 Ry
     estimated scf accuracy    <       0.05691569 Ry

     total magnetization       =     1.00 Bohr mag/cell
     absolute magnetization    =     1.31 Bohr mag/cell

     iteration #  5     ecut=    40.00 Ry     beta= 0.70
     CG style diagonalization
     ethr =  1.46E-05,  avg # of iterations =  3.1

     negative rho (up, down):  5.665E-01 5.833E-03

     total cpu time spent up to now is     5178.6 secs

     total energy              =   -1716.02104875 Ry
     Harris-Foulkes estimate   =   -1716.02694914 Ry
     estimated scf accuracy    <       0.01158427 Ry

     total magnetization       =     1.00 Bohr mag/cell
     absolute magnetization    =     1.31 Bohr mag/cell

     iteration #  6     ecut=    40.00 Ry     beta= 0.70
     CG style diagonalization
     ethr =  2.96E-06,  avg # of iterations =  3.8

     negative rho (up, down):  5.655E-01 5.835E-03

     total cpu time spent up to now is     5200.1 secs

     total energy              =   -1716.02338705 Ry
     Harris-Foulkes estimate   =   -1716.02348867 Ry
     estimated scf accuracy    <       0.00016073 Ry

     total magnetization       =     1.00 Bohr mag/cell
     absolute magnetization    =     1.31 Bohr mag/cell

     iteration #  7     ecut=    40.00 Ry     beta= 0.70
     CG style diagonalization
     c_bands:  1 eigenvalues not converged
     ethr =  4.11E-08,  avg # of iterations =  3.7

     negative rho (up, down):  5.648E-01 5.839E-03

     total cpu time spent up to now is     5220.8 secs

     total energy              =   -1716.02340993 Ry
     Harris-Foulkes estimate   =   -1716.02342446 Ry
     estimated scf accuracy    <       0.00001301 Ry

     total magnetization       =     1.00 Bohr mag/cell
     absolute magnetization    =     1.31 Bohr mag/cell

     iteration #  8     ecut=    40.00 Ry     beta= 0.70
     CG style diagonalization
     ethr =  3.33E-09,  avg # of iterations =  3.8

     negative rho (up, down):  5.647E-01 5.832E-03

     total cpu time spent up to now is     5241.7 secs

     total energy              =   -1716.02340691 Ry
     Harris-Foulkes estimate   =   -1716.02341323 Ry
     estimated scf accuracy    <       0.00000845 Ry

     total magnetization       =     1.00 Bohr mag/cell
     absolute magnetization    =     1.31 Bohr mag/cell

     iteration #  9     ecut=    40.00 Ry     beta= 0.70
     CG style diagonalization
     ethr =  2.16E-09,  avg # of iterations =  3.6

     negative rho (up, down):  5.648E-01 5.831E-03
 
     Magnetic moment per site:
     atom:    1    charge:    0.8210    magn:    0.0000    constr:    0.0000
     atom:    2    charge:    0.8164    magn:    0.0002    constr:    0.0000
     atom:    3    charge:    0.8177    magn:    0.0005    constr:    0.0000
     atom:    4    charge:    0.8202    magn:   -0.0000    constr:    0.0000
     atom:    5    charge:    0.8228    magn:    0.0000    constr:    0.0000
     atom:    6    charge:    0.8209    magn:    0.0000    constr:    0.0000
     atom:    7    charge:    0.8215    magn:   -0.0000    constr:    0.0000
     atom:    8    charge:    0.8202    magn:   -0.0000    constr:    0.0000
     atom:    9    charge:    0.8213    magn:   -0.0003    constr:    0.0000
     atom:   10    charge:    0.8110    magn:    0.0024    constr:    0.0000
     atom:   11    charge:    0.8177    magn:    0.0003    constr:    0.0000
     atom:   12    charge:    0.8242    magn:    0.0000    constr:    0.0000
     atom:   13    charge:    0.8233    magn:    0.0000    constr:    0.0000
     atom:   14    charge:    0.8209    magn:    0.0000    constr:    0.0000
     atom:   15    charge:    0.8210    magn:   -0.0000    constr:    0.0000
     atom:   16    charge:    0.8246    magn:   -0.0001    constr:    0.0000
     atom:   17    charge:    0.8329    magn:    0.0019    constr:    0.0000
     atom:   18    charge:    0.8232    magn:    0.0066    constr:    0.0000
     atom:   19    charge:    0.8319    magn:   -0.0004    constr:    0.0000
     atom:   20    charge:    0.8242    magn:    0.0000    constr:    0.0000
     atom:   21    charge:    0.8228    magn:    0.0001    constr:    0.0000
     atom:   22    charge:    0.8182    magn:    0.0000    constr:    0.0000
     atom:   23    charge:    0.8148    magn:    0.0002    constr:    0.0000
     atom:   24    charge:    0.8142    magn:   -0.0012    constr:    0.0000
     atom:   25    charge:    1.5914    magn:   -0.0397    constr:    0.0000
     atom:   26    charge:    0.8232    magn:    0.0066    constr:    0.0000
     atom:   27    charge:    0.8176    magn:    0.0003    constr:    0.0000
     atom:   28    charge:    0.8203    magn:   -0.0000    constr:    0.0000
     atom:   29    charge:    0.8176    magn:    0.0001    constr:    0.0000
     atom:   30    charge:    0.8189    magn:   -0.0000    constr:    0.0000
     atom:   31    charge:    0.8190    magn:   -0.0004    constr:    0.0000
     atom:   32    charge:    0.8142    magn:   -0.0012    constr:    0.0000
     atom:   33    charge:    0.8328    magn:    0.0020    constr:    0.0000
     atom:   34    charge:    0.8110    magn:    0.0024    constr:    0.0000
     atom:   35    charge:    0.8178    magn:    0.0005    constr:    0.0000
     atom:   36    charge:    0.8171    magn:    0.0002    constr:    0.0000
     atom:   37    charge:    0.8169    magn:   -0.0000    constr:    0.0000
     atom:   38    charge:    0.8189    magn:   -0.0000    constr:    0.0000
     atom:   39    charge:    0.8148    magn:    0.0002    constr:    0.0000
     atom:   40    charge:    0.8246    magn:   -0.0001    constr:    0.0000
     atom:   41    charge:    0.8214    magn:   -0.0003    constr:    0.0000
     atom:   42    charge:    0.8164    magn:    0.0002    constr:    0.0000
     atom:   43    charge:    0.8164    magn:   -0.0000    constr:    0.0000
     atom:   44    charge:    0.8171    magn:    0.0002    constr:    0.0000
     atom:   45    charge:    0.8176    magn:    0.0001    constr:    0.0000
     atom:   46    charge:    0.8182    magn:    0.0000    constr:    0.0000
     atom:   47    charge:    0.8210    magn:   -0.0001    constr:    0.0000
     atom:   48    charge:    0.8202    magn:   -0.0000    constr:    0.0000
     atom:   49    charge:    0.8210    magn:    0.0000    constr:    0.0000
     atom:   50    charge:    2.7315    magn:    0.0004    constr:    0.0000
     atom:   51    charge:    2.7280    magn:   -0.0002    constr:    0.0000
     atom:   52    charge:    2.7220    magn:    0.0021    constr:    0.0000
     atom:   53    charge:    2.7301    magn:   -0.0001    constr:    0.0000
     atom:   54    charge:    2.7306    magn:    0.0001    constr:    0.0000
     atom:   55    charge:    2.7274    magn:   -0.0000    constr:    0.0000
     atom:   56    charge:    2.7264    magn:   -0.0000    constr:    0.0000
     atom:   57    charge:    2.7271    magn:    0.0003    constr:    0.0000
     atom:   58    charge:    2.7290    magn:    0.0033    constr:    0.0000
     atom:   59    charge:    2.7234    magn:    0.0063    constr:    0.0000
     atom:   60    charge:    2.7198    magn:    0.0113    constr:    0.0000
     atom:   61    charge:    2.7328    magn:    0.0010    constr:    0.0000
     atom:   62    charge:    2.7267    magn:   -0.0000    constr:    0.0000
     atom:   63    charge:    2.7274    magn:   -0.0001    constr:    0.0000
     atom:   64    charge:    2.7328    magn:   -0.0000    constr:    0.0000
     atom:   65    charge:    2.7323    magn:    0.0001    constr:    0.0000
     atom:   66    charge:    2.7318    magn:    0.0152    constr:    0.0000
     atom:   67    charge:    1.6272    magn:    0.1301    constr:    0.0000
     atom:   68    charge:    2.7385    magn:   -0.0027    constr:    0.0000
     atom:   69    charge:    2.7328    magn:    0.0009    constr:    0.0000
     atom:   70    charge:    2.7306    magn:    0.0000    constr:    0.0000
     atom:   71    charge:    2.7309    magn:   -0.0002    constr:    0.0000
     atom:   72    charge:    2.7262    magn:    0.0001    constr:    0.0000
     atom:   73    charge:    2.7240    magn:    0.0008    constr:    0.0000
     atom:   74    charge:    2.7082    magn:   -0.0045    constr:    0.0000
     atom:   75    charge:    1.6272    magn:    0.1298    constr:    0.0000
     atom:   76    charge:    2.7198    magn:    0.0112    constr:    0.0000
     atom:   77    charge:    2.7301    magn:   -0.0000    constr:    0.0000
     atom:   78    charge:    2.7288    magn:   -0.0000    constr:    0.0000
     atom:   79    charge:    2.7267    magn:   -0.0000    constr:    0.0000
     atom:   80    charge:    2.7248    magn:   -0.0000    constr:    0.0000
     atom:   81    charge:    2.7240    magn:    0.0008    constr:    0.0000
     atom:   82    charge:    2.7317    magn:    0.0152    constr:    0.0000
     atom:   83    charge:    2.7234    magn:    0.0062    constr:    0.0000
     atom:   84    charge:    2.7220    magn:    0.0022    constr:    0.0000
     atom:   85    charge:    2.7262    magn:    0.0001    constr:    0.0000
     atom:   86    charge:    2.7273    magn:   -0.0001    constr:    0.0000
     atom:   87    charge:    2.7267    magn:   -0.0000    constr:    0.0000
     atom:   88    charge:    2.7262    magn:    0.0000    constr:    0.0000
     atom:   89    charge:    2.7323    magn:    0.0002    constr:    0.0000
     atom:   90    charge:    2.7290    magn:    0.0033    constr:    0.0000
     atom:   91    charge:    2.7280    magn:   -0.0002    constr:    0.0000
     atom:   92    charge:    2.7322    magn:   -0.0002    constr:    0.0000
     atom:   93    charge:    2.7262    magn:    0.0001    constr:    0.0000
     atom:   94    charge:    2.7288    magn:    0.0000    constr:    0.0000
     atom:   95    charge:    2.7308    magn:   -0.0001    constr:    0.0000
     atom:   96    charge:    2.7328    magn:    0.0001    constr:    0.0000
     atom:   97    charge:    2.7271    magn:    0.0001    constr:    0.0000
     atom:   98    charge:    2.7315    magn:    0.0002    constr:    0.0000

     total cpu time spent up to now is     5260.7 secs

     End of self-consistent calculation

 ------ SPIN UP ------------


          k = 0.0000 0.0000 0.0000 ( 77329 PWs)   bands (ev):

   -25.0441 -24.8068 -24.6160 -24.6069 -24.5877 -24.5353 -24.4810 -24.0135
   -23.7995 -23.7824 -23.7821 -23.6912 -23.6767 -23.5364 -23.4071 -23.3970
   -23.3814 -23.2363 -23.2224 -22.6183 -22.4116 -22.4070 -22.4023 -22.3916
   -22.3902 -22.3856 -22.3821 -22.3561 -22.3379 -22.1614 -22.1528 -22.0018
   -21.9450 -21.9429 -21.9206 -21.7319 -21.7286 -21.4738 -21.4580 -21.4486
   -21.4364 -21.3666 -21.3538 -21.2859 -21.2638 -21.2613 -21.2504 -19.9294
   -17.8231 -15.4524 -15.0409 -15.0381 -15.0246 -14.9877 -14.9788 -14.9017
   -14.8167 -14.7826 -14.7826 -14.7301 -14.6701 -14.3714 -14.2856 -14.2764
   -14.2453 -14.1961 -14.1733 -13.6817 -13.5548 -13.5347 -13.5114 -13.5020
   -13.4930 -13.4849 -13.4820 -13.4485 -13.4252 -13.2359 -13.1666 -12.9420
   -12.7560 -12.7429 -12.7188 -12.7067 -12.5489 -12.0390 -12.0062 -11.9723
   -11.8930 -11.8468 -11.7795 -11.3134 -11.2462 -11.2450 -11.2159 -11.1887
   -11.1808 -11.1188 -10.9161 -10.7921 -10.7809 -10.7488 -10.7454 -10.7410
   -10.7329 -10.7305 -10.7193 -10.7040 -10.6788 -10.6737 -10.6735 -10.6658
   -10.6649 -10.6632 -10.6474 -10.6103 -10.6046 -10.5647 -10.5257 -10.5062
   -10.3124 -10.3107  -9.9960  -9.9874  -9.9866  -9.9470  -9.8951  -9.6406
    -9.6385  -9.5264  -9.5116  -9.5107  -9.4323  -9.4305  -9.2658  -9.2057
    -9.2054  -9.1670  -9.1487  -9.1389  -9.1125  -9.1022  -9.0796  -9.0605
    -8.9762  -8.9742  -8.9670  -8.9501  -8.9288  -8.8800  -8.8457  -8.7119
    -8.6665  -8.6315  -8.6098  -8.4574  -8.2831  -8.1661  -7.7569  -7.7332
    -7.7264  -7.6975  -7.6848  -7.5021  -7.4990  -7.4952  -7.4883  -7.4790
    -7.4759  -7.4736  -7.4572  -7.4357  -7.3562  -7.3193  -7.2412  -7.2251
    -6.8846  -6.8073  -6.8043  -6.7877  -6.7155  -6.6427  -6.6230  -6.5960
    -6.0698  -6.0401  -6.0257  -6.0197  -5.9486  -5.9028  -5.7656  -5.7329
    -5.7296  -5.7219  -5.5651  -4.6321   0.4791   0.8426   0.9268   0.9969
     1.1182   1.1199   1.1231   1.1320   1.1359   1.1652   1.5026   1.5037
     1.5069   1.5142   1.5174   1.5498   1.6396   1.6415   1.6431   1.6507
     1.6538   1.6805   1.7191   1.7241   1.7283   1.7430   1.7454   1.8356
     1.9336   1.9515   1.9855   1.9911   1.9985   2.1148   2.1829   2.2531
     2.2658   2.2751   2.2930   2.3308   2.4189   2.4213   2.4224   2.4281
     2.4319   2.4363   2.4545   2.7444   2.7679

 ------ SPIN DOWN ----------


          k = 0.0000 0.0000 0.0000 ( 77329 PWs)   bands (ev):

   -25.0368 -24.8024 -24.6129 -24.6049 -24.5866 -24.5237 -24.4693 -24.0107
   -23.7940 -23.7785 -23.7726 -23.6840 -23.6706 -23.5353 -23.3982 -23.3891
   -23.3767 -23.2187 -23.2079 -22.6090 -22.4056 -22.4048 -22.3994 -22.3879
   -22.3843 -22.3772 -22.3756 -22.3406 -22.3317 -22.1526 -22.1462 -21.9951
   -21.9387 -21.9377 -21.9143 -21.7175 -21.7143 -21.4642 -21.4530 -21.4408
   -21.4311 -21.3612 -21.3431 -21.2836 -21.2592 -21.2565 -21.2447 -19.7137
   -17.3612 -15.3942 -15.0389 -15.0330 -15.0217 -14.9828 -14.9762 -14.8970
   -14.8146 -14.7777 -14.7776 -14.7085 -14.6588 -14.3647 -14.2834 -14.2733
   -14.2392 -14.1791 -14.1622 -13.6679 -13.5483 -13.5294 -13.5096 -13.5006
   -13.4908 -13.4814 -13.4807 -13.4372 -13.4105 -13.1888 -13.1323 -12.9366
   -12.7538 -12.7408 -12.7076 -12.7005 -12.5324 -12.0345 -12.0014 -11.9656
   -11.8792 -11.8276 -11.7589 -11.3106 -11.2350 -11.2192 -11.2106 -11.1830
   -11.1781 -11.1135 -10.9135 -10.7863 -10.7765 -10.7458 -10.7394 -10.7308
   -10.7265 -10.7166 -10.7073 -10.7023 -10.6772 -10.6711 -10.6647 -10.6623
   -10.6589 -10.6581 -10.6439 -10.5879 -10.5677 -10.5109 -10.4835 -10.4536
   -10.2972 -10.2695  -9.9945  -9.9853  -9.9842  -9.9239  -9.8852  -9.6212
    -9.6116  -9.5105  -9.4975  -9.4846  -9.3882  -9.3677  -9.2579  -9.2042
    -9.2017  -9.1645  -9.1474  -9.1380  -9.1114  -9.1003  -9.0699  -9.0579
    -8.9671  -8.9473  -8.9431  -8.9323  -8.9058  -8.7617  -8.7593  -8.6886
    -8.6646  -8.6307  -8.5951  -8.4233  -8.2580  -8.1308  -7.7536  -7.7311
    -7.7236  -7.6711  -7.6682  -7.4915  -7.4833  -7.4818  -7.4716  -7.4673
    -7.4573  -7.4414  -7.4043  -7.4005  -7.3307  -7.2041  -7.1998  -7.1485
    -6.8586  -6.7865  -6.7817  -6.7620  -6.5699  -6.5589  -6.5544  -6.4893
    -6.0345  -6.0168  -5.9989  -5.9960  -5.8776  -5.8761  -5.7564  -5.7144
    -5.7099  -5.6997  -5.1634  -2.2435   0.4795   0.8632   0.9968   1.1022
     1.1178   1.1196   1.1226   1.1313   1.1364   1.1707   1.5022   1.5033
     1.5063   1.5134   1.5175   1.5603   1.6390   1.6411   1.6426   1.6500
     1.6544   1.6869   1.7260   1.7323   1.7453   1.7749   1.7763   1.8447
     1.9404   1.9668   1.9910   2.0249   2.0772   2.1166   2.2010   2.2818
     2.3061   2.3125   2.3318   2.3976   2.4184   2.4207   2.4219   2.4275
     2.4350   2.4374   2.4585   2.7369   2.7425

     highest occupied, lowest unoccupied level (ev):    -4.6321   -2.2435

!    total energy              =   -1716.02340797 Ry
     Harris-Foulkes estimate   =   -1716.02340812 Ry
     estimated scf accuracy    <       0.00000051 Ry

     total magnetization       =     1.00 Bohr mag/cell
     absolute magnetization    =     1.31 Bohr mag/cell

     convergence has been achieved in   9 iterations

     Using ACE for calculation of exact exchange

     total energy              =   -1716.06802257 Ry
     Harris-Foulkes estimate   =   -1716.06802272 Ry
     est. exchange err (dexx)  =       0.04461460 Ry
     - averaged Fock potential =     193.99496249 Ry
     + Fock energy (ACE)       =     -97.08043024 Ry

     EXX: now go back to refine exchange calculation

     total cpu time spent up to now is     9914.7 secs

     Self-consistent Calculation

     iteration #  1     ecut=    40.00 Ry     beta= 0.70
     CG style diagonalization
     ethr =  2.16E-09,  avg # of iterations = 13.6

     negative rho (up, down):  5.748E-01 5.826E-03

     total cpu time spent up to now is    10008.7 secs

     total energy              =   -1716.07440775 Ry
     Harris-Foulkes estimate   =   -1716.07504622 Ry
     estimated scf accuracy    <       0.00143356 Ry

     total magnetization       =     1.00 Bohr mag/cell
     absolute magnetization    =     1.35 Bohr mag/cell

     iteration #  2     ecut=    40.00 Ry     beta= 0.70
     CG style diagonalization
     ethr =  3.67E-07,  avg # of iterations =  3.5

     negative rho (up, down):  5.766E-01 5.839E-03

     total cpu time spent up to now is    10027.3 secs

     total energy              =   -1716.07457969 Ry
     Harris-Foulkes estimate   =   -1716.07459849 Ry
     estimated scf accuracy    <       0.00008643 Ry

     total magnetization       =     1.00 Bohr mag/cell
     absolute magnetization    =     1.35 Bohr mag/cell

     iteration #  3     ecut=    40.00 Ry     beta= 0.70
     CG style diagonalization
     ethr =  2.21E-08,  avg # of iterations =  3.8

     negative rho (up, down):  5.772E-01 5.859E-03

     total cpu time spent up to now is    10048.2 secs

     total energy              =   -1716.07460557 Ry
     Harris-Foulkes estimate   =   -1716.07460521 Ry
     estimated scf accuracy    <       0.00001685 Ry

     total magnetization       =     1.00 Bohr mag/cell
     absolute magnetization    =     1.35 Bohr mag/cell

     iteration #  4     ecut=    40.00 Ry     beta= 0.70
     CG style diagonalization
     ethr =  4.31E-09,  avg # of iterations =  3.6

     negative rho (up, down):  5.774E-01 5.862E-03
 
     Magnetic moment per site:
     atom:    1    charge:    0.8178    magn:   -0.0000    constr:    0.0000
     atom:    2    charge:    0.8132    magn:    0.0002    constr:    0.0000
     atom:    3    charge:    0.8146    magn:    0.0004    constr:    0.0000
     atom:    4    charge:    0.8170    magn:   -0.0000    constr:    0.0000
     atom:    5    charge:    0.8197    magn:    0.0000    constr:    0.0000
     atom:    6    charge:    0.8177    magn:    0.0000    constr:    0.0000
     atom:    7    charge:    0.8183    magn:   -0.0000    constr:    0.0000
     atom:    8    charge:    0.8170    magn:   -0.0000    constr:    0.0000
     atom:    9    charge:    0.8182    magn:   -0.0003    constr:    0.0000
     atom:   10    charge:    0.8078    magn:    0.0022    constr:    0.0000
     atom:   11    charge:    0.8144    magn:    0.0002    constr:    0.0000
     atom:   12    charge:    0.8210    magn:    0.0000    constr:    0.0000
     atom:   13    charge:    0.8202    magn:    0.0000    constr:    0.0000
     atom:   14    charge:    0.8177    magn:    0.0000    constr:    0.0000
     atom:   15    charge:    0.8178    magn:   -0.0000    constr:    0.0000
     atom:   16    charge:    0.8214    magn:   -0.0001    constr:    0.0000
     atom:   17    charge:    0.8300    magn:    0.0017    constr:    0.0000
     atom:   18    charge:    0.8203    magn:    0.0061    constr:    0.0000
     atom:   19    charge:    0.8287    magn:   -0.0004    constr:    0.0000
     atom:   20    charge:    0.8211    magn:    0.0000    constr:    0.0000
     atom:   21    charge:    0.8197    magn:    0.0000    constr:    0.0000
     atom:   22    charge:    0.8150    magn:    0.0000    constr:    0.0000
     atom:   23    charge:    0.8116    magn:    0.0001    constr:    0.0000
     atom:   24    charge:    0.8110    magn:   -0.0014    constr:    0.0000
     atom:   25    charge:    1.5880    magn:   -0.0475    constr:    0.0000
     atom:   26    charge:    0.8203    magn:    0.0061    constr:    0.0000
     atom:   27    charge:    0.8144    magn:    0.0002    constr:    0.0000
     atom:   28    charge:    0.8170    magn:   -0.0000    constr:    0.0000
     atom:   29    charge:    0.8144    magn:    0.0001    constr:    0.0000
     atom:   30    charge:    0.8158    magn:   -0.0000    constr:    0.0000
     atom:   31    charge:    0.8158    magn:   -0.0004    constr:    0.0000
     atom:   32    charge:    0.8110    magn:   -0.0014    constr:    0.0000
     atom:   33    charge:    0.8300    magn:    0.0017    constr:    0.0000
     atom:   34    charge:    0.8079    magn:    0.0022    constr:    0.0000
     atom:   35    charge:    0.8146    magn:    0.0004    constr:    0.0000
     atom:   36    charge:    0.8139    magn:    0.0002    constr:    0.0000
     atom:   37    charge:    0.8138    magn:   -0.0000    constr:    0.0000
     atom:   38    charge:    0.8158    magn:   -0.0000    constr:    0.0000
     atom:   39    charge:    0.8116    magn:    0.0001    constr:    0.0000
     atom:   40    charge:    0.8214    magn:   -0.0001    constr:    0.0000
     atom:   41    charge:    0.8182    magn:   -0.0003    constr:    0.0000
     atom:   42    charge:    0.8132    magn:    0.0002    constr:    0.0000
     atom:   43    charge:    0.8131    magn:   -0.0000    constr:    0.0000
     atom:   44    charge:    0.8139    magn:    0.0002    constr:    0.0000
     atom:   45    charge:    0.8144    magn:    0.0000    constr:    0.0000
     atom:   46    charge:    0.8150    magn:    0.0000    constr:    0.0000
     atom:   47    charge:    0.8178    magn:   -0.0001    constr:    0.0000
     atom:   48    charge:    0.8170    magn:   -0.0000    constr:    0.0000
     atom:   49    charge:    0.8178    magn:   -0.0000    constr:    0.0000
     atom:   50    charge:    2.7303    magn:    0.0003    constr:    0.0000
     atom:   51    charge:    2.7267    magn:   -0.0002    constr:    0.0000
     atom:   52    charge:    2.7206    magn:    0.0018    constr:    0.0000
     atom:   53    charge:    2.7289    magn:   -0.0000    constr:    0.0000
     atom:   54    charge:    2.7294    magn:    0.0001    constr:    0.0000
     atom:   55    charge:    2.7262    magn:   -0.0000    constr:    0.0000
     atom:   56    charge:    2.7252    magn:   -0.0000    constr:    0.0000
     atom:   57    charge:    2.7258    magn:    0.0002    constr:    0.0000
     atom:   58    charge:    2.7277    magn:    0.0030    constr:    0.0000
     atom:   59    charge:    2.7221    magn:    0.0063    constr:    0.0000
     atom:   60    charge:    2.7185    magn:    0.0107    constr:    0.0000
     atom:   61    charge:    2.7315    magn:    0.0008    constr:    0.0000
     atom:   62    charge:    2.7254    magn:   -0.0000    constr:    0.0000
     atom:   63    charge:    2.7262    magn:   -0.0001    constr:    0.0000
     atom:   64    charge:    2.7316    magn:   -0.0000    constr:    0.0000
     atom:   65    charge:    2.7310    magn:    0.0002    constr:    0.0000
     atom:   66    charge:    2.7304    magn:    0.0147    constr:    0.0000
     atom:   67    charge:    1.6260    magn:    0.1356    constr:    0.0000
     atom:   68    charge:    2.7372    magn:   -0.0024    constr:    0.0000
     atom:   69    charge:    2.7315    magn:    0.0008    constr:    0.0000
     atom:   70    charge:    2.7293    magn:    0.0001    constr:    0.0000
     atom:   71    charge:    2.7296    magn:   -0.0001    constr:    0.0000
     atom:   72    charge:    2.7249    magn:    0.0001    constr:    0.0000
     atom:   73    charge:    2.7227    magn:    0.0006    constr:    0.0000
     atom:   74    charge:    2.7067    magn:   -0.0052    constr:    0.0000
     atom:   75    charge:    1.6261    magn:    0.1354    constr:    0.0000
     atom:   76    charge:    2.7185    magn:    0.0107    constr:    0.0000
     atom:   77    charge:    2.7289    magn:    0.0000    constr:    0.0000
     atom:   78    charge:    2.7275    magn:   -0.0000    constr:    0.0000
     atom:   79    charge:    2.7254    magn:   -0.0000    constr:    0.0000
     atom:   80    charge:    2.7235    magn:   -0.0001    constr:    0.0000
     atom:   81    charge:    2.7227    magn:    0.0006    constr:    0.0000
     atom:   82    charge:    2.7304    magn:    0.0147    constr:    0.0000
     atom:   83    charge:    2.7221    magn:    0.0063    constr:    0.0000
     atom:   84    charge:    2.7206    magn:    0.0019    constr:    0.0000
     atom:   85    charge:    2.7249    magn:    0.0001    constr:    0.0000
     atom:   86    charge:    2.7260    magn:   -0.0001    constr:    0.0000
     atom:   87    charge:    2.7254    magn:   -0.0000    constr:    0.0000
     atom:   88    charge:    2.7249    magn:    0.0000    constr:    0.0000
     atom:   89    charge:    2.7310    magn:    0.0002    constr:    0.0000
     atom:   90    charge:    2.7278    magn:    0.0030    constr:    0.0000
     atom:   91    charge:    2.7267    magn:   -0.0002    constr:    0.0000
     atom:   92    charge:    2.7310    magn:   -0.0001    constr:    0.0000
     atom:   93    charge:    2.7249    magn:    0.0001    constr:    0.0000
     atom:   94    charge:    2.7275    magn:    0.0000    constr:    0.0000
     atom:   95    charge:    2.7296    magn:   -0.0001    constr:    0.0000
     atom:   96    charge:    2.7315    magn:    0.0000    constr:    0.0000
     atom:   97    charge:    2.7258    magn:    0.0002    constr:    0.0000
     atom:   98    charge:    2.7303    magn:    0.0002    constr:    0.0000

     total cpu time spent up to now is    10068.6 secs

     End of self-consistent calculation

 ------ SPIN UP ------------


          k = 0.0000 0.0000 0.0000 ( 77329 PWs)   bands (ev):

   -25.0449 -24.8073 -24.6172 -24.6084 -24.5892 -24.5365 -24.4831 -24.0146
   -23.8009 -23.7842 -23.7832 -23.6932 -23.6788 -23.5384 -23.4083 -23.3981
   -23.3844 -23.2389 -23.2251 -22.6201 -22.4138 -22.4093 -22.4041 -22.3938
   -22.3923 -22.3882 -22.3846 -22.3584 -22.3412 -22.1644 -22.1557 -22.0043
   -21.9478 -21.9454 -21.9246 -21.7345 -21.7321 -21.4770 -21.4605 -21.4518
   -21.4399 -21.3701 -21.3572 -21.2893 -21.2672 -21.2648 -21.2542 -19.9423
   -17.8540 -15.4604 -15.0454 -15.0430 -15.0294 -14.9928 -14.9839 -14.9064
   -14.8208 -14.7875 -14.7869 -14.7350 -14.6758 -14.3802 -14.2959 -14.2870
   -14.2556 -14.2069 -14.1838 -13.6902 -13.5627 -13.5421 -13.5187 -13.5091
   -13.5004 -13.4928 -13.4896 -13.4574 -13.4331 -13.2453 -13.1768 -12.9493
   -12.7621 -12.7487 -12.7263 -12.7139 -12.5563 -12.0485 -12.0154 -11.9821
   -11.9028 -11.8574 -11.7910 -11.3285 -11.2608 -11.2471 -11.2313 -11.2041
   -11.1959 -11.1342 -10.9316 -10.8074 -10.7969 -10.7628 -10.7541 -10.7474
   -10.7447 -10.7444 -10.7341 -10.7196 -10.6943 -10.6891 -10.6820 -10.6794
   -10.6745 -10.6663 -10.6489 -10.6201 -10.6119 -10.5684 -10.5437 -10.5223
   -10.3313 -10.3291 -10.0183 -10.0103 -10.0093  -9.9702  -9.9189  -9.6639
    -9.6386  -9.5290  -9.5147  -9.5143  -9.4375  -9.4352  -9.2871  -9.2264
    -9.2255  -9.1881  -9.1697  -9.1605  -9.1354  -9.1253  -9.0842  -9.0834
    -8.9990  -8.9790  -8.9715  -8.9571  -8.9537  -8.8877  -8.8539  -8.7346
    -8.6853  -8.6508  -8.6304  -8.4785  -8.3063  -8.1923  -7.7833  -7.7593
    -7.7528  -7.7126  -7.7049  -7.5152  -7.5121  -7.5082  -7.5011  -7.4923
    -7.4897  -7.4875  -7.4716  -7.4510  -7.3855  -7.3356  -7.2716  -7.2429
    -6.9038  -6.8282  -6.8257  -6.8105  -6.7382  -6.6780  -6.6575  -6.6213
    -6.1003  -6.0709  -6.0573  -6.0516  -5.9818  -5.9371  -5.8011  -5.7694
    -5.7655  -5.7581  -5.6056  -4.7015   0.4795   0.8528   0.9643   0.9974
     1.1185   1.1201   1.1232   1.1318   1.1353   1.1636   1.5003   1.5013
     1.5044   1.5115   1.5145   1.5476   1.6398   1.6417   1.6433   1.6507
     1.6536   1.6796   1.7563   1.7613   1.7648   1.7778   1.7802   1.8749
     1.9774   1.9942   2.0276   2.0302   2.0397   2.1144   2.2099   2.2770
     2.2884   2.2985   2.3180   2.3533   2.4179   2.4203   2.4215   2.4271
     2.4304   2.4354   2.4545   2.7424   2.7633

 ------ SPIN DOWN ----------


          k = 0.0000 0.0000 0.0000 ( 77329 PWs)   bands (ev):

   -25.0397 -24.8071 -24.6145 -24.6068 -24.5884 -24.5260 -24.4728 -24.0146
   -23.7963 -23.7808 -23.7748 -23.6865 -23.6733 -23.5381 -23.4002 -23.3912
   -23.3802 -23.2220 -23.2114 -22.6129 -22.4083 -22.4074 -22.4019 -22.3905
   -22.3874 -22.3803 -22.3793 -22.3443 -22.3357 -22.1562 -22.1495 -21.9987
   -21.9422 -21.9411 -21.9191 -21.7209 -21.7183 -21.4682 -21.4565 -21.4449
   -21.4354 -21.3651 -21.3474 -21.2875 -21.2632 -21.2607 -21.2493 -19.7241
   -17.3581 -15.4020 -15.0438 -15.0382 -15.0270 -14.9879 -14.9814 -14.9019
   -14.8191 -14.7829 -14.7820 -14.7128 -14.6645 -14.3740 -14.2940 -14.2842
   -14.2496 -14.1890 -14.1727 -13.6765 -13.5572 -13.5374 -13.5173 -13.5080
   -13.4986 -13.4898 -13.4888 -13.4465 -13.4184 -13.1958 -13.1404 -12.9449
   -12.7601 -12.7470 -12.7155 -12.7078 -12.5398 -12.0447 -12.0113 -11.9758
   -11.8888 -11.8376 -11.7693 -11.3264 -11.2510 -11.2264 -11.2212 -11.1984
   -11.1935 -11.1290 -10.9298 -10.8019 -10.7932 -10.7601 -10.7529 -10.7456
   -10.7412 -10.7317 -10.7180 -10.7127 -10.6931 -10.6869 -10.6789 -10.6753
   -10.6671 -10.6607 -10.6463 -10.6032 -10.5718 -10.5288 -10.4988 -10.4578
   -10.3154 -10.2855 -10.0170 -10.0082 -10.0071  -9.9466  -9.9090  -9.6438
    -9.6221  -9.5156  -9.5031  -9.4912  -9.3933  -9.3725  -9.2795  -9.2247
    -9.2226  -9.1858  -9.1685  -9.1597  -9.1346  -9.1238  -9.0821  -9.0795
    -8.9901  -8.9548  -8.9509  -8.9410  -8.9297  -8.7673  -8.7662  -8.7105
    -8.6837  -8.6503  -8.6165  -8.4431  -8.2798  -8.1552  -7.7802  -7.7573
    -7.7501  -7.6961  -7.6947  -7.5062  -7.4986  -7.4973  -7.4868  -7.4837
    -7.4737  -7.4587  -7.4246  -7.4227  -7.3585  -7.2323  -7.2163  -7.1670
    -6.8838  -6.8124  -6.8065  -6.7891  -6.5926  -6.5902  -6.5854  -6.5142
    -6.0709  -6.0532  -6.0348  -6.0320  -5.9132  -5.9115  -5.7953  -5.7543
    -5.7498  -5.7404  -5.1919  -2.1453   0.4798   0.8609   0.9973   1.1145
     1.1181   1.1198   1.1227   1.1310   1.1357   1.1689   1.4999   1.5009
     1.5039   1.5107   1.5146   1.5592   1.6393   1.6413   1.6428   1.6500
     1.6541   1.6860   1.7608   1.7681   1.7803   1.8100   1.8120   1.8819
     1.9822   2.0080   2.0324   2.0643   2.1115   2.1162   2.2255   2.3058
     2.3304   2.3367   2.3542   2.4173   2.4195   2.4209   2.4214   2.4264
     2.4335   2.4364   2.4580   2.7352   2.7405

     highest occupied, lowest unoccupied level (ev):    -4.7015   -2.1453

!    total energy              =   -1716.07461160 Ry
     Harris-Foulkes estimate   =   -1716.07460995 Ry
     estimated scf accuracy    <       0.00000098 Ry

     total magnetization       =     1.00 Bohr mag/cell
[...]
   -21.4309 -21.3606 -21.3432 -21.2829 -21.2588 -21.2562 -21.2450 -19.7159
   -17.3409 -15.3972 -15.0400 -15.0342 -15.0233 -14.9839 -14.9773 -14.8980
   -14.8148 -14.7789 -14.7778 -14.7083 -14.6607 -14.3710 -14.2915 -14.2819
   -14.2470 -14.1858 -14.1698 -13.6726 -13.5536 -13.5335 -13.5138 -13.5044
   -13.4952 -13.4865 -13.4854 -13.4432 -13.4145 -13.1905 -13.1362 -12.9417
   -12.7560 -12.7430 -12.7116 -12.7039 -12.5361 -12.0411 -12.0082 -11.9724
   -11.8852 -11.8336 -11.7656 -11.3242 -11.2491 -11.2244 -11.2181 -11.1964
   -11.1916 -11.1271 -10.9273 -10.7993 -10.7915 -10.7577 -10.7504 -10.7433
   -10.7391 -10.7296 -10.7161 -10.7114 -10.6915 -10.6850 -10.6772 -10.6736
   -10.6640 -10.6578 -10.6432 -10.6005 -10.5698 -10.5269 -10.4963 -10.4555
   -10.3138 -10.2826 -10.0165 -10.0079 -10.0067  -9.9456  -9.9087  -9.6431
    -9.6233  -9.5138  -9.5014  -9.4904  -9.3911  -9.3703  -9.2783  -9.2237
    -9.2214  -9.1846  -9.1674  -9.1588  -9.1342  -9.1233  -9.0819  -9.0798
    -8.9894  -8.9546  -8.9508  -8.9399  -8.9289  -8.7657  -8.7648  -8.7086
    -8.6820  -8.6486  -8.6146  -8.4409  -8.2779  -8.1539  -7.7798  -7.7570
    -7.7500  -7.7009  -7.6957  -7.5076  -7.5004  -7.4991  -7.4885  -7.4857
    -7.4760  -7.4617  -7.4274  -7.4277  -7.3576  -7.2314  -7.2185  -7.1690
    -6.8889  -6.8173  -6.8111  -6.7942  -6.5972  -6.5883  -6.5838  -6.5185
    -6.0796  -6.0618  -6.0431  -6.0400  -5.9219  -5.9195  -5.8041  -5.7638
    -5.7591  -5.7504  -5.1968  -2.0920   0.4795   0.8596   0.9970   1.1135
     1.1178   1.1194   1.1223   1.1305   1.1351   1.1681   1.4990   1.4999
     1.5029   1.5096   1.5133   1.5589   1.6390   1.6410   1.6425   1.6496
     1.6536   1.6856   1.7736   1.7812   1.7932   1.8235   1.8254   1.8954
     1.9971   2.0229   2.0474   2.0788   2.1158   2.1252   2.2349   2.3154
     2.3401   2.3468   2.3641   2.4168   2.4189   2.4204   2.4258   2.4318
     2.4329   2.4358   2.4578   2.7343   2.7394

     highest occupied, lowest unoccupied level (ev):    -4.7355   -2.0920

!    total energy              =   -1716.07629597 Ry
     Harris-Foulkes estimate   =   -1716.07629281 Ry
     estimated scf accuracy    <       0.00000060 Ry

     total magnetization       =     1.00 Bohr mag/cell
     absolute magnetization    =     1.39 Bohr mag/cell

     convergence has been achieved in   1 iterations

     Using ACE for calculation of exact exchange

     total energy              =   -1716.07629743 Ry
     Harris-Foulkes estimate   =   -1716.07629427 Ry
     est. exchange err (dexx)  =       0.00000146 Ry
     - averaged Fock potential =     194.28728658 Ry
     + Fock energy (ACE)       =     -97.14445662 Ry

     EXX: now go back to refine exchange calculation

     total cpu time spent up to now is    28681.0 secs

     Self-consistent Calculation

     iteration #  1     ecut=    40.00 Ry     beta= 0.70
     CG style diagonalization
     c_bands:  1 eigenvalues not converged
     ethr =  3.50E-10,  avg # of iterations =  4.2

     negative rho (up, down):  5.807E-01 5.936E-03
 
     Magnetic moment per site:
     atom:    1    charge:    0.8173    magn:   -0.0000    constr:    0.0000
     atom:    2    charge:    0.8127    magn:    0.0002    constr:    0.0000
     atom:    3    charge:    0.8140    magn:    0.0004    constr:    0.0000
     atom:    4    charge:    0.8165    magn:   -0.0000    constr:    0.0000
     atom:    5    charge:    0.8191    magn:    0.0000    constr:    0.0000
     atom:    6    charge:    0.8172    magn:    0.0000    constr:    0.0000
     atom:    7    charge:    0.8178    magn:   -0.0000    constr:    0.0000
     atom:    8    charge:    0.8165    magn:    0.0000    constr:    0.0000
     atom:    9    charge:    0.8176    magn:   -0.0003    constr:    0.0000
     atom:   10    charge:    0.8073    magn:    0.0021    constr:    0.0000
     atom:   11    charge:    0.8139    magn:    0.0002    constr:    0.0000
     atom:   12    charge:    0.8205    magn:    0.0000    constr:    0.0000
     atom:   13    charge:    0.8196    magn:   -0.0000    constr:    0.0000
     atom:   14    charge:    0.8172    magn:    0.0000    constr:    0.0000
     atom:   15    charge:    0.8173    magn:   -0.0001    constr:    0.0000
     atom:   16    charge:    0.8209    magn:   -0.0001    constr:    0.0000
     atom:   17    charge:    0.8295    magn:    0.0015    constr:    0.0000
     atom:   18    charge:    0.8199    magn:    0.0057    constr:    0.0000
     atom:   19    charge:    0.8282    magn:   -0.0004    constr:    0.0000
     atom:   20    charge:    0.8205    magn:    0.0000    constr:    0.0000
     atom:   21    charge:    0.8191    magn:    0.0000    constr:    0.0000
     atom:   22    charge:    0.8145    magn:    0.0000    constr:    0.0000
     atom:   23    charge:    0.8111    magn:    0.0001    constr:    0.0000
     atom:   24    charge:    0.8105    magn:   -0.0015    constr:    0.0000
     atom:   25    charge:    1.5877    magn:   -0.0553    constr:    0.0000
     atom:   26    charge:    0.8199    magn:    0.0057    constr:    0.0000
     atom:   27    charge:    0.8139    magn:    0.0002    constr:    0.0000
     atom:   28    charge:    0.8165    magn:   -0.0000    constr:    0.0000
     atom:   29    charge:    0.8139    magn:    0.0000    constr:    0.0000
     atom:   30    charge:    0.8152    magn:   -0.0000    constr:    0.0000
     atom:   31    charge:    0.8153    magn:   -0.0004    constr:    0.0000
     atom:   32    charge:    0.8105    magn:   -0.0015    constr:    0.0000
     atom:   33    charge:    0.8295    magn:    0.0015    constr:    0.0000
     atom:   34    charge:    0.8073    magn:    0.0021    constr:    0.0000
     atom:   35    charge:    0.8140    magn:    0.0004    constr:    0.0000
     atom:   36    charge:    0.8133    magn:    0.0001    constr:    0.0000
     atom:   37    charge:    0.8132    magn:   -0.0000    constr:    0.0000
     atom:   38    charge:    0.8152    magn:   -0.0000    constr:    0.0000
     atom:   39    charge:    0.8111    magn:    0.0001    constr:    0.0000
     atom:   40    charge:    0.8209    magn:   -0.0001    constr:    0.0000
     atom:   41    charge:    0.8176    magn:   -0.0003    constr:    0.0000
     atom:   42    charge:    0.8127    magn:    0.0002    constr:    0.0000
     atom:   43    charge:    0.8126    magn:   -0.0000    constr:    0.0000
     atom:   44    charge:    0.8133    magn:    0.0001    constr:    0.0000
     atom:   45    charge:    0.8139    magn:    0.0000    constr:    0.0000
     atom:   46    charge:    0.8145    magn:    0.0000    constr:    0.0000
     atom:   47    charge:    0.8173    magn:   -0.0001    constr:    0.0000
     atom:   48    charge:    0.8165    magn:    0.0000    constr:    0.0000
     atom:   49    charge:    0.8173    magn:   -0.0000    constr:    0.0000
     atom:   50    charge:    2.7305    magn:    0.0003    constr:    0.0000
     atom:   51    charge:    2.7269    magn:   -0.0001    constr:    0.0000
     atom:   52    charge:    2.7209    magn:    0.0017    constr:    0.0000
     atom:   53    charge:    2.7291    magn:    0.0000    constr:    0.0000
     atom:   54    charge:    2.7295    magn:    0.0001    constr:    0.0000
     atom:   55    charge:    2.7264    magn:    0.0000    constr:    0.0000
     atom:   56    charge:    2.7254    magn:   -0.0000    constr:    0.0000
     atom:   57    charge:    2.7260    magn:    0.0002    constr:    0.0000
     atom:   58    charge:    2.7280    magn:    0.0027    constr:    0.0000
     atom:   59    charge:    2.7223    magn:    0.0064    constr:    0.0000
     atom:   60    charge:    2.7188    magn:    0.0102    constr:    0.0000
     atom:   61    charge:    2.7317    magn:    0.0007    constr:    0.0000
     atom:   62    charge:    2.7256    magn:   -0.0000    constr:    0.0000
     atom:   63    charge:    2.7264    magn:   -0.0000    constr:    0.0000
     atom:   64    charge:    2.7317    magn:    0.0000    constr:    0.0000
     atom:   65    charge:    2.7312    magn:    0.0003    constr:    0.0000
     atom:   66    charge:    2.7308    magn:    0.0142    constr:    0.0000
     atom:   67    charge:    1.6264    magn:    0.1405    constr:    0.0000
     atom:   68    charge:    2.7374    magn:   -0.0017    constr:    0.0000
     atom:   69    charge:    2.7317    magn:    0.0007    constr:    0.0000
     atom:   70    charge:    2.7295    magn:    0.0001    constr:    0.0000
     atom:   71    charge:    2.7298    magn:   -0.0000    constr:    0.0000
     atom:   72    charge:    2.7251    magn:    0.0001    constr:    0.0000
     atom:   73    charge:    2.7229    magn:    0.0006    constr:    0.0000
     atom:   74    charge:    2.7069    magn:   -0.0054    constr:    0.0000
     atom:   75    charge:    1.6264    magn:    0.1405    constr:    0.0000
     atom:   76    charge:    2.7188    magn:    0.0102    constr:    0.0000
     atom:   77    charge:    2.7291    magn:    0.0000    constr:    0.0000
     atom:   78    charge:    2.7277    magn:    0.0000    constr:    0.0000
     atom:   79    charge:    2.7256    magn:   -0.0000    constr:    0.0000
     atom:   80    charge:    2.7237    magn:   -0.0001    constr:    0.0000
     atom:   81    charge:    2.7229    magn:    0.0006    constr:    0.0000
     atom:   82    charge:    2.7308    magn:    0.0142    constr:    0.0000
     atom:   83    charge:    2.7223    magn:    0.0064    constr:    0.0000
     atom:   84    charge:    2.7209    magn:    0.0017    constr:    0.0000
     atom:   85    charge:    2.7251    magn:    0.0002    constr:    0.0000
     atom:   86    charge:    2.7262    magn:   -0.0001    constr:    0.0000
     atom:   87    charge:    2.7256    magn:   -0.0000    constr:    0.0000
     atom:   88    charge:    2.7251    magn:    0.0001    constr:    0.0000
     atom:   89    charge:    2.7312    magn:    0.0003    constr:    0.0000
     atom:   90    charge:    2.7280    magn:    0.0027    constr:    0.0000
     atom:   91    charge:    2.7269    magn:   -0.0001    constr:    0.0000
     atom:   92    charge:    2.7312    magn:   -0.0000    constr:    0.0000
     atom:   93    charge:    2.7251    magn:    0.0002    constr:    0.0000
     atom:   94    charge:    2.7277    magn:    0.0000    constr:    0.0000
     atom:   95    charge:    2.7298    magn:   -0.0000    constr:    0.0000
     atom:   96    charge:    2.7317    magn:    0.0000    constr:    0.0000
     atom:   97    charge:    2.7260    magn:    0.0002    constr:    0.0000
     atom:   98    charge:    2.7305    magn:    0.0003    constr:    0.0000

     total cpu time spent up to now is    28716.7 secs

     End of self-consistent calculation

 ------ SPIN UP ------------


          k = 0.0000 0.0000 0.0000 ( 77329 PWs)   bands (ev):

   -25.0374 -24.7980 -24.6113 -24.6027 -24.5835 -24.5309 -24.4767 -24.0070
   -23.7953 -23.7786 -23.7773 -23.6874 -23.6730 -23.5324 -23.4025 -23.3923
   -23.3792 -23.2332 -23.2192 -22.6135 -22.4080 -22.4037 -22.3984 -22.3880
   -22.3868 -22.3828 -22.3790 -22.3526 -22.3359 -22.1588 -22.1504 -21.9986
   -21.9422 -21.9398 -21.9194 -21.7287 -21.7264 -21.4713 -21.4549 -21.4463
   -21.4343 -21.3645 -21.3517 -21.2838 -21.2617 -21.2594 -21.2488 -19.9331
   -17.8581 -15.4534 -15.0408 -15.0383 -15.0249 -14.9883 -14.9793 -14.9016
   -14.8158 -14.7827 -14.7821 -14.7302 -14.6715 -14.3764 -14.2926 -14.2839
   -14.2524 -14.2035 -14.1803 -13.6855 -13.5576 -13.5374 -13.5144 -13.5048
   -13.4963 -13.4886 -13.4856 -13.4531 -13.4287 -13.2415 -13.1732 -12.9445
   -12.7573 -12.7440 -12.7215 -12.7095 -12.5517 -12.0439 -12.0110 -11.9778
   -11.8988 -11.8534 -11.7874 -11.3253 -11.2578 -11.2422 -11.2284 -11.2017
   -11.1933 -11.1316 -10.9282 -10.8040 -10.7939 -10.7596 -10.7508 -10.7444
   -10.7416 -10.7363 -10.7311 -10.7170 -10.6919 -10.6865 -10.6794 -10.6768
   -10.6703 -10.6624 -10.6450 -10.6171 -10.6081 -10.5641 -10.5412 -10.5196
   -10.3295 -10.3272 -10.0170 -10.0092 -10.0082  -9.9689  -9.9178  -9.6628
    -9.6303  -9.5256  -9.5115  -9.5113  -9.4346  -9.4326  -9.2850  -9.2244
    -9.2235  -9.1863  -9.1679  -9.1590  -9.1343  -9.1240  -9.0832  -9.0786
    -8.9976  -8.9763  -8.9687  -8.9554  -8.9523  -8.8858  -8.8527  -8.7324
    -8.6826  -8.6483  -8.6277  -8.4766  -8.3048  -8.1913  -7.7820  -7.7581
    -7.7519  -7.7115  -7.6993  -7.5154  -7.5121  -7.5085  -7.5015  -7.4928
    -7.4902  -7.4878  -7.4721  -7.4528  -7.3851  -7.3366  -7.2713  -7.2458
    -6.9050  -6.8307  -6.8285  -6.8140  -6.7412  -6.6783  -6.6581  -6.6264
    -6.1053  -6.0769  -6.0634  -6.0577  -5.9886  -5.9443  -5.8085  -5.7774
    -5.7733  -5.7659  -5.6159  -4.7374   0.4790   0.8566   0.9994   0.9971
     1.1182   1.1198   1.1228   1.1313   1.1346   1.1627   1.4993   1.5002
     1.5033   1.5103   1.5132   1.5470   1.6396   1.6414   1.6430   1.6503
     1.6530   1.6790   1.7709   1.7754   1.7790   1.7918   1.7939   1.8905
     1.9942   2.0103   2.0434   2.0464   2.0552   2.1139   2.2215   2.2878
     2.2981   2.3084   2.3282   2.3622   2.4173   2.4197   2.4209   2.4264
     2.4296   2.4348   2.4543   2.7413   2.7619

 ------ SPIN DOWN ----------


          k = 0.0000 0.0000 0.0000 ( 77329 PWs)   bands (ev):

   -25.0339 -24.8015 -24.6088 -24.6012 -24.5828 -24.5209 -24.4675 -24.0092
   -23.7909 -23.7754 -23.7696 -23.6809 -23.6678 -23.5326 -23.3949 -23.3860
   -23.3748 -23.2167 -23.2060 -22.6077 -22.4028 -22.4019 -22.3965 -22.3851
   -22.3820 -22.3749 -22.3742 -22.3394 -22.3305 -22.1509 -22.1442 -21.9933
   -21.9369 -21.9359 -21.9140 -21.7156 -21.7130 -21.4629 -21.4513 -21.4398
   -21.4301 -21.3598 -21.3423 -21.2821 -21.2580 -21.2554 -21.2442 -19.7161
   -17.3401 -15.3970 -15.0394 -15.0336 -15.0227 -14.9833 -14.9767 -14.8974
   -14.8142 -14.7783 -14.7772 -14.7077 -14.6601 -14.3704 -14.2909 -14.2813
   -14.2464 -14.1852 -14.1693 -13.6721 -13.5531 -13.5329 -13.5131 -13.5038
   -13.4945 -13.4858 -13.4848 -13.4426 -13.4138 -13.1898 -13.1355 -12.9410
   -12.7554 -12.7424 -12.7110 -12.7033 -12.5354 -12.0405 -12.0075 -11.9718
   -11.8845 -11.8330 -11.7649 -11.3236 -11.2485 -11.2237 -11.2176 -11.1958
   -11.1909 -11.1265 -10.9268 -10.7987 -10.7909 -10.7570 -10.7497 -10.7427
   -10.7383 -10.7289 -10.7155 -10.7111 -10.6908 -10.6843 -10.6764 -10.6729
   -10.6634 -10.6573 -10.6427 -10.5998 -10.5692 -10.5263 -10.4956 -10.4552
   -10.3131 -10.2819 -10.0158 -10.0072 -10.0060  -9.9449  -9.9080  -9.6423
    -9.6232  -9.5132  -9.5008  -9.4898  -9.3905  -9.3698  -9.2776  -9.2230
    -9.2207  -9.1839  -9.1667  -9.1582  -9.1335  -9.1226  -9.0811  -9.0795
    -8.9886  -8.9540  -8.9502  -8.9393  -8.9281  -8.7653  -8.7641  -8.7080
    -8.6812  -8.6479  -8.6140  -8.4401  -8.2772  -8.1532  -7.7791  -7.7562
    -7.7492  -7.7008  -7.6950  -7.5070  -7.4998  -7.4986  -7.4879  -7.4851
    -7.4754  -7.4610  -7.4268  -7.4270  -7.3570  -7.2307  -7.2181  -7.1683
    -6.8884  -6.8168  -6.8105  -6.7936  -6.5968  -6.5877  -6.5831  -6.5179
    -6.0791  -6.0612  -6.0425  -6.0394  -5.9214  -5.9188  -5.8036  -5.7632
    -5.7585  -5.7498  -5.1970  -2.0894   0.4794   0.8594   0.9970   1.1124
     1.1178   1.1194   1.1223   1.1305   1.1350   1.1680   1.4989   1.4999
     1.5028   1.5095   1.5132   1.5587   1.6390   1.6409   1.6424   1.6495
     1.6536   1.6855   1.7740   1.7817   1.7936   1.8239   1.8258   1.8958
     1.9975   2.0234   2.0478   2.0792   2.1158   2.1255   2.2353   2.3158
     2.3405   2.3471   2.3645   2.4167   2.4189   2.4204   2.4258   2.4322
     2.4328   2.4357   2.4577   2.7342   2.7393

     highest occupied, lowest unoccupied level (ev):    -4.7374   -2.0894

!    total energy              =   -1716.07629861 Ry
     Harris-Foulkes estimate   =   -1716.07629836 Ry
     estimated scf accuracy    <       0.00000027 Ry

     total magnetization       =     1.00 Bohr mag/cell
     absolute magnetization    =     1.39 Bohr mag/cell

     convergence has been achieved in   1 iterations

     Using ACE for calculation of exact exchange

!!   total energy              =   -1716.07629896 Ry
     Harris-Foulkes estimate   =   -1716.07629871 Ry
     est. exchange err (dexx)  =       0.00000035 Ry
     - averaged Fock potential =     194.28827476 Ry
     + Fock energy (ACE)       =     -97.14381848 Ry

     EXX self-consistency reached

     Writing output data file C2Cn.save/
 
     init_run     :      2.62s CPU      2.74s WALL (       1 calls)
     electrons    :   1006.02s CPU   1015.10s WALL (       7 calls)

     Called by init_run:
     wfcinit      :      1.42s CPU      1.47s WALL (       1 calls)
     potinit      :      0.46s CPU      0.48s WALL (       1 calls)
     hinit0       :      0.39s CPU      0.39s WALL (       1 calls)

     Called by electrons:
     c_bands      :    974.61s CPU    981.91s WALL (      33 calls)
     sum_band     :     12.30s CPU     12.55s WALL (      33 calls)
     v_of_rho     :      5.00s CPU      5.14s WALL (      35 calls)
     newd         :      1.16s CPU      1.26s WALL (      34 calls)
     PAW_pot      :      4.60s CPU      4.71s WALL (      35 calls)
     mix_rho      :      0.27s CPU      0.30s WALL (      33 calls)

     Called by c_bands:
     init_us_2    :     15.06s CPU     15.31s WALL (    3578 calls)
     rcgdiagg     :    946.35s CPU    953.30s WALL (      74 calls)
     wfcrot       :     29.05s CPU     29.35s WALL (      62 calls)

     Called by sum_band:
     sum_band:bec :      0.03s CPU      0.03s WALL (      66 calls)
     addusdens    :      1.02s CPU      1.13s WALL (      33 calls)

     Called by *cgdiagg:
     h_psi        :    569.98s CPU    574.42s WALL (   67272 calls)
     s_psi        :    213.57s CPU    215.31s WALL (  134482 calls)
     rdiaghg      :      1.18s CPU      1.21s WALL (      62 calls)

     Called by h_psi:
     h_psi:pot    :    512.04s CPU    515.96s WALL (   67272 calls)
     h_psi:calbec :    206.56s CPU    207.92s WALL (   67272 calls)
     vloc_psi     :    192.59s CPU    194.42s WALL (   67272 calls)
     add_vuspsi   :    112.35s CPU    113.20s WALL (   67272 calls)
     hs_1psi      :    653.91s CPU    658.87s WALL (   67210 calls)
     s_1psi       :    227.95s CPU    229.39s WALL (   67210 calls)

     General routines
     calbec       :    369.45s CPU    372.26s WALL (  183614 calls)
     fft          :      3.39s CPU      3.42s WALL (     574 calls)
     ffts         :      0.19s CPU      0.19s WALL (      66 calls)
     fftw         :    186.56s CPU    188.32s WALL (  158082 calls)
     fftc         :   3791.65s CPU   3810.69s WALL (  672280 calls)
     fftcw        :      9.28s CPU      9.48s WALL (    6874 calls)
 
     Parallel routines
     fft_scatt_xy :     65.48s CPU     65.88s WALL (  837876 calls)
     fft_scatt_yz :   3287.51s CPU   3302.91s WALL (  837876 calls)

     EXX routines
     exx_grid     :      0.00s CPU      0.00s WALL (       1 calls)
     exxinit      :      3.97s CPU      4.16s WALL (       7 calls)
     vexx         :  32194.35s CPU  32328.74s WALL (      14 calls)
     matcalc      :     39.27s CPU     39.67s WALL (   49052 calls)
     aceupdate    :      0.08s CPU      0.13s WALL (      14 calls)
     vexxace      :     57.91s CPU     58.51s WALL (   49012 calls)
     aceinit      :  32195.06s CPU  32329.59s WALL (      14 calls)

     EXX+US  routines
     becxx        :      0.01s CPU      0.02s WALL (       7 calls)
     addusxx      :  13637.84s CPU  13692.06s WALL (  672280 calls)
     newdxx       :  13696.31s CPU  13750.67s WALL (  672280 calls)
     qvan_init    :      0.12s CPU      0.23s WALL (      14 calls)
     nlxx_pot     :     20.42s CPU     20.74s WALL (    3430 calls)

     EXX+PAW routines
     PAW_newdxx   :    883.77s CPU    888.79s WALL (  672280 calls)
 
     PWSCF        :      9h13m CPU      9h15m WALL

 
   This run was terminated on:  16:48:31  22Sep2021            

=------------------------------------------------------------------------------=
   JOB DONE.
=------------------------------------------------------------------------------=
