
     Program PWSCF v.6.4.1 starts on  7Jun2021 at 23: 8:42 

     This program is part of the open-source Quantum ESPRESSO suite
     for quantum simulation of materials; please cite
         "P. Giannozzi et al., J. Phys.:Condens. Matter 21 395502 (2009);
         "P. Giannozzi et al., J. Phys.:Condens. Matter 29 465901 (2017);
          URL http://www.quantum-espresso.org", 
     in publications or presentations arising from this work. More details at
     http://www.quantum-espresso.org/quote

     Parallel version (MPI), running on    64 processors

     MPI processes distributed on     2 nodes
     R & G space division:  proc/nbgrp/npool/nimage =      64
     Waiting for input...
     Reading input from standard input

     Current dimensions of program PWSCF are:
     Max number of different atomic species (ntypx) = 10
     Max number of k-points (npk) =  40000
     Max angular momentum in pseudopotentials (lmaxx) =  3
               file N.pbe-n-kjpaw_psl.1.0.0.UPF: wavefunction(s)  2S renormalized
               file C.pbe-n-kjpaw_psl.1.0.0.UPF: wavefunction(s)  2S 2P renormalized
               file C.pbe-n-kjpaw_psl.1.0.0.UPF: wavefunction(s)  2S 2P renormalized
               file C.pbe-n-kjpaw_psl.1.0.0.UPF: wavefunction(s)  2S 2P renormalized

     --------------------------------------------
     Parameters for DFT-D3 Dispersion Correction:
     --------------------------------------------
       Reference C6 values for interpolation: 

         atom   Coordination number   C6
         B          0.000           214.36
         B          0.971           150.74
         B          1.944           106.23
         B          2.913            62.89
         B          4.586            56.06
         C1         0.000            98.23
         C1         0.987            86.49
         C1         1.998            58.72
         C1         2.999            51.56
         C1         3.984            36.41
         C2         0.000            98.23
         C2         0.987            86.49
         C2         1.998            58.72
         C2         2.999            51.56
         C2         3.984            36.41
         C3         0.000            98.23
         C3         0.987            86.49
         C3         1.998            58.72
         C3         2.999            51.56
         C3         3.984            36.41
         N          0.000            50.54
         N          0.994            44.25
         N          2.014            39.35
         N          2.990            31.16

       Values used:

         atom   Coordination number  R0_AB[au]  C6      C8
         B          3.323            3.039     62.90   2506.30
         B          3.323            3.039     62.90   2506.30
         B          3.323            3.039     62.90   2506.30
         B          3.323            3.039     62.90   2506.31
         B          3.323            3.039     62.90   2506.30
         B          3.323            3.039     62.90   2506.30
         B          3.323            3.039     62.90   2506.30
         B          3.323            3.039     62.90   2506.30
         B          3.323            3.039     62.90   2506.30
         B          3.325            3.039     62.90   2506.25
         B          3.323            3.039     62.90   2506.30
         B          3.323            3.039     62.90   2506.30
         B          3.323            3.039     62.90   2506.30
         B          3.323            3.039     62.90   2506.30
         B          3.323            3.039     62.90   2506.30
         B          3.323            3.039     62.90   2506.30
         B          3.317            3.039     62.90   2506.45
         B          3.319            3.039     62.90   2506.40
         B          3.323            3.039     62.90   2506.29
         B          3.323            3.039     62.90   2506.30
         B          3.323            3.039     62.90   2506.30
         B          3.323            3.039     62.90   2506.30
         B          3.323            3.039     62.90   2506.30
         B          3.317            3.039     62.90   2506.43
         C2         3.274            2.750     49.03   1417.98
         B          3.319            3.039     62.90   2506.40
         B          3.323            3.039     62.90   2506.30
         B          3.323            3.039     62.90   2506.31
         B          3.323            3.039     62.90   2506.30
         B          3.323            3.039     62.90   2506.30
         B          3.323            3.039     62.90   2506.30
         B          3.317            3.039     62.90   2506.43
         B          3.317            3.039     62.90   2506.45
         B          3.325            3.039     62.90   2506.25
         B          3.323            3.039     62.90   2506.30
         B          3.323            3.039     62.90   2506.30
         B          3.323            3.039     62.90   2506.30
         B          3.323            3.039     62.90   2506.30
         B          3.323            3.039     62.90   2506.30
         B          3.323            3.039     62.90   2506.30
         B          3.323            3.039     62.90   2506.30
         B          3.323            3.039     62.90   2506.30
         B          3.323            3.039     62.90   2506.30
         B          3.323            3.039     62.90   2506.30
         B          3.323            3.039     62.90   2506.30
         B          3.323            3.039     62.90   2506.30
         B          3.323            3.039     62.90   2506.30
         B          3.323            3.039     62.90   2506.30
         B          3.323            3.039     62.90   2506.30
         N          3.129            2.478     31.22    688.75
         N          3.129            2.478     31.22    688.75
         N          3.129            2.478     31.22    688.75
         N          3.129            2.478     31.22    688.75
         N          3.129            2.478     31.22    688.75
         N          3.129            2.478     31.22    688.75
         N          3.129            2.478     31.22    688.75
         N          3.129            2.478     31.22    688.75
         N          3.129            2.478     31.22    688.75
         N          3.136            2.478     31.22    688.68
         N          3.136            2.478     31.22    688.68
         N          3.129            2.478     31.22    688.75
         N          3.129            2.478     31.22    688.75
         N          3.129            2.478     31.22    688.75
         N          3.129            2.478     31.22    688.75
         N          3.129            2.478     31.22    688.75
         N          3.135            2.478     31.22    688.68
         C1         3.195            2.750     50.11   1449.31
         N          3.143            2.478     31.21    688.62
         N          3.129            2.478     31.22    688.75
         N          3.129            2.478     31.22    688.75
         N          3.129            2.478     31.22    688.75
         N          3.129            2.478     31.22    688.75
         N          3.129            2.478     31.22    688.75
         N          3.143            2.478     31.21    688.62
         C3         3.195            2.750     50.11   1449.31
         N          3.136            2.478     31.22    688.68
         N          3.129            2.478     31.22    688.75
         N          3.129            2.478     31.22    688.75
         N          3.129            2.478     31.22    688.75
         N          3.129            2.478     31.22    688.75
         N          3.129            2.478     31.22    688.75
         N          3.135            2.478     31.22    688.68
         N          3.136            2.478     31.22    688.68
         N          3.129            2.478     31.22    688.75
         N          3.129            2.478     31.22    688.75
         N          3.129            2.478     31.22    688.75
         N          3.129            2.478     31.22    688.75
         N          3.129            2.478     31.22    688.75
         N          3.129            2.478     31.22    688.75
         N          3.129            2.478     31.22    688.75
         N          3.129            2.478     31.22    688.75
         N          3.129            2.478     31.22    688.75
         N          3.129            2.478     31.22    688.75
         N          3.129            2.478     31.22    688.75
         N          3.129            2.478     31.22    688.75
         N          3.129            2.478     31.22    688.75
         N          3.129            2.478     31.22    688.75
         N          3.129            2.478     31.22    688.75

         Molecular C6 ( Ry / a.u.^6 ) =    437644.59


     gamma-point specific algorithms are used

     Subspace diagonalization in iterative solution of the eigenvalue problem:
     one sub-group per band group will be used
     scalapack distributed-memory algorithm (size of sub-group:  5*  5 procs)

     Message from routine setup:
     DEPRECATED: symmetry with ibrav=0, use correct ibrav instead
 
     Parallelization info
     --------------------
     sticks:   dense  smooth     PW     G-vecs:    dense   smooth      PW
     Min         188     188     46                19260    19260    2398
     Max         190     190     48                19286    19286    2416
     Sum       12145   12145   3049              1233789  1233789  154157
 


     bravais-lattice index     =            0
     lattice parameter (alat)  =      33.2346  a.u.
     unit-cell volume          =   36104.5892 (a.u.)^3
     number of atoms/cell      =           98
     number of atomic types    =            5
     number of electrons       =       391.00
     number of Kohn-Sham states=          245
     kinetic-energy cutoff     =      40.0000  Ry
     charge density cutoff     =     160.0000  Ry
     convergence threshold     =      1.0E-06
     mixing beta               =       0.7000
     number of iterations used =            8  plain     mixing
     Exchange-correlation      = SLA PW PBX PBC ( 1  4  3  4 0 0)
     Using LIBXC version       =    4   3   4
     nstep                     =           50


     celldm(1)=  33.234611  celldm(2)=   0.000000  celldm(3)=   0.000000
     celldm(4)=   0.000000  celldm(5)=   0.000000  celldm(6)=   0.000000

     crystal axes: (cart. coord. in units of alat)
               a(1) = (   0.999334   0.000000   0.000000 )  
               a(2) = (  -0.499667   0.865449   0.000000 )  
               a(3) = (   0.000000   0.000000   1.137204 )  

     reciprocal axes: (cart. coord. in units 2 pi/alat)
               b(1) = (  1.000666  0.577735  0.000000 )  
               b(2) = (  0.000000  1.155470  0.000000 )  
               b(3) = (  0.000000  0.000000  0.879350 )  


     PseudoPot. # 1 for B  read from file:
     ./pseudo/B.pbe-n-kjpaw_psl.1.0.0.UPF
     MD5 check sum: 8c825a5969375aca5c2c6ad5945b3059
     Pseudo is Projector augmented-wave + core cor, Zval =  3.0
     Generated using "atomic" code by A. Dal Corso v.6.3
     Shape of augmentation charge: PSQ
     Using radial grid of 1059 points,  4 beta functions with: 
                l(1) =   0
                l(2) =   0
                l(3) =   1
                l(4) =   1
     Q(r) pseudized with 0 coefficients 


     PseudoPot. # 2 for N  read from file:
     ./pseudo/N.pbe-n-kjpaw_psl.1.0.0.UPF
     MD5 check sum: 14c48229446f9f2d411169a3abcbc3fa
     Pseudo is Projector augmented-wave + core cor, Zval =  5.0
     Generated using "atomic" code by A. Dal Corso v.6.3
     Shape of augmentation charge: PSQ
     Using radial grid of 1085 points,  4 beta functions with: 
                l(1) =   0
                l(2) =   0
                l(3) =   1
                l(4) =   1
     Q(r) pseudized with 0 coefficients 


     PseudoPot. # 3 for C  read from file:
     ./pseudo/C.pbe-n-kjpaw_psl.1.0.0.UPF
     MD5 check sum: 5f16ad9a65e90284d1d834d4ab3b0f7d
     Pseudo is Projector augmented-wave + core cor, Zval =  4.0
     Generated using "atomic" code by A. Dal Corso v.6.3
     Shape of augmentation charge: PSQ
     Using radial grid of 1073 points,  4 beta functions with: 
                l(1) =   0
                l(2) =   0
                l(3) =   1
                l(4) =   1
     Q(r) pseudized with 0 coefficients 


     PseudoPot. # 4 for C  read from file:
     ./pseudo/C.pbe-n-kjpaw_psl.1.0.0.UPF
     MD5 check sum: 5f16ad9a65e90284d1d834d4ab3b0f7d
     Pseudo is Projector augmented-wave + core cor, Zval =  4.0
     Generated using "atomic" code by A. Dal Corso v.6.3
     Shape of augmentation charge: PSQ
     Using radial grid of 1073 points,  4 beta functions with: 
                l(1) =   0
                l(2) =   0
                l(3) =   1
                l(4) =   1
     Q(r) pseudized with 0 coefficients 


     PseudoPot. # 5 for C  read from file:
     ./pseudo/C.pbe-n-kjpaw_psl.1.0.0.UPF
     MD5 check sum: 5f16ad9a65e90284d1d834d4ab3b0f7d
     Pseudo is Projector augmented-wave + core cor, Zval =  4.0
     Generated using "atomic" code by A. Dal Corso v.6.3
     Shape of augmentation charge: PSQ
     Using radial grid of 1073 points,  4 beta functions with: 
                l(1) =   0
                l(2) =   0
                l(3) =   1
                l(4) =   1
     Q(r) pseudized with 0 coefficients 


     atomic species   valence    mass     pseudopotential
        B              3.00    10.00000     B ( 1.00)
        N              5.00    14.00000     N ( 1.00)
        C1             4.00    12.00000     C ( 1.00)
        C2             4.00    12.00000     C ( 1.00)
        C3             4.00    12.00000     C ( 1.00)

     Starting magnetic structure 
     atomic species   magnetization
        B            0.000
        N            0.000
        C1           1.000
        C2           0.000
        C3           0.000

      2 Sym. Ops. (no inversion) found



   Cartesian axes

     site n.     atom                  positions (alat units)
         1           B   tau(   1) = (  -0.0000000   0.0824309   0.5686018  )
         2           B   tau(   2) = (  -0.0713829   0.2060622   0.5686018  )
         3           B   tau(   3) = (  -0.1427568   0.3296890   0.5686018  )
         4           B   tau(   4) = (  -0.2141395   0.4533331   0.5686018  )
         5           B   tau(   5) = (  -0.2855266   0.5769736   0.5686018  )
         6           B   tau(   6) = (  -0.3569036   0.7005986   0.5686018  )
         7           B   tau(   7) = (  -0.4282799   0.8242336   0.5686018  )
         8           B   tau(   8) = (   0.1427700   0.0824283   0.5686018  )
         9           B   tau(   9) = (   0.0713829   0.2060622   0.5686018  )
        10           B   tau(  10) = (  -0.0000000   0.3296942   0.5686018  )
        11           B   tau(  11) = (  -0.0713745   0.4533335   0.5686018  )
        12           B   tau(  12) = (  -0.1427567   0.5769711   0.5686018  )
        13           B   tau(  13) = (  -0.2141437   0.7006019   0.5686018  )
        14           B   tau(  14) = (  -0.2855207   0.8242373   0.5686018  )
        15           B   tau(  15) = (   0.2855205   0.0824268   0.5686018  )
        16           B   tau(  16) = (   0.2141440   0.2060546   0.5686018  )
        17           B   tau(  17) = (   0.1427568   0.3296890   0.5686018  )
        18           B   tau(  18) = (   0.0713735   0.4533335   0.5686018  )
        19           B   tau(  19) = (  -0.0000005   0.5769663   0.5686018  )
        20           B   tau(  20) = (  -0.0713827   0.7005944   0.5686018  )
        21           B   tau(  21) = (  -0.1427698   0.8242355   0.5686018  )
        22           B   tau(  22) = (   0.4282797   0.0824299   0.5686018  )
        23           B   tau(  23) = (   0.3569027   0.2060579   0.5686018  )
        24           B   tau(  24) = (   0.2855263   0.3296861   0.5686018  )
        25           C2  tau(  25) = (   0.2141385   0.4533331   0.5686018  )
        26           B   tau(  26) = (   0.1427557   0.5769711   0.5686018  )
        27           B   tau(  27) = (   0.0713817   0.7005944   0.5686018  )
        28           B   tau(  28) = (  -0.0000005   0.8242327   0.5686018  )
        29           B   tau(  29) = (   0.5710548   0.0824299   0.5686018  )
        30           B   tau(  30) = (   0.4996677   0.2060636   0.5686018  )
        31           B   tau(  31) = (   0.4282907   0.3296923   0.5686018  )
        32           B   tau(  32) = (   0.3569138   0.4533330   0.5686018  )
        33           B   tau(  33) = (   0.2855266   0.5769736   0.5686018  )
        34           B   tau(  34) = (   0.2141437   0.7006019   0.5686018  )
        35           B   tau(  35) = (   0.1427698   0.8242355   0.5686018  )
        36           B   tau(  36) = (   0.7138140   0.0824268   0.5686018  )
        37           B   tau(  37) = (   0.6424318   0.2060579   0.5686018  )
        38           B   tau(  38) = (   0.5710448   0.3296923   0.5686018  )
        39           B   tau(  39) = (   0.4996672   0.4533333   0.5686018  )
        40           B   tau(  40) = (   0.4282907   0.5769676   0.5686018  )
        41           B   tau(  41) = (   0.3569036   0.7005986   0.5686018  )
        42           B   tau(  42) = (   0.2855207   0.8242373   0.5686018  )
        43           B   tau(  43) = (   0.8565645   0.0824283   0.5686018  )
        44           B   tau(  44) = (   0.7851905   0.2060546   0.5686018  )
        45           B   tau(  45) = (   0.7138082   0.3296861   0.5686018  )
        46           B   tau(  46) = (   0.6424207   0.4533330   0.5686018  )
        47           B   tau(  47) = (   0.5710438   0.5769676   0.5686018  )
        48           B   tau(  48) = (   0.4996672   0.7005925   0.5686018  )
        49           B   tau(  49) = (   0.4282799   0.8242336   0.5686018  )
        50           N   tau(  50) = (   0.0713853   0.0412143   0.5686018  )
        51           N   tau(  51) = (   0.0000000   0.1648537   0.5686018  )
        52           N   tau(  52) = (  -0.0713781   0.2884819   0.5686018  )
        53           N   tau(  53) = (  -0.1427563   0.4121169   0.5686018  )
        54           N   tau(  54) = (  -0.2141417   0.5357601   0.5686018  )
        55           N   tau(  55) = (  -0.2855237   0.6593929   0.5686018  )
        56           N   tau(  56) = (  -0.3568998   0.7830222   0.5686018  )
        57           N   tau(  57) = (   0.2141455   0.0412121   0.5686018  )
        58           N   tau(  58) = (   0.1427635   0.1648494   0.5686018  )
        59           N   tau(  59) = (   0.0713781   0.2884819   0.5686018  )
        60           N   tau(  60) = (   0.0000000   0.4121169   0.5686018  )
        61           N   tau(  61) = (  -0.0713787   0.5357561   0.5686018  )
        62           N   tau(  62) = (  -0.1427636   0.6593906   0.5686018  )
        63           N   tau(  63) = (  -0.2141456   0.7830234   0.5686018  )
        64           N   tau(  64) = (   0.3568998   0.0412132   0.5686018  )
        65           N   tau(  65) = (   0.2855237   0.1648472   0.5686018  )
        66           N   tau(  66) = (   0.2141416   0.2884777   0.5686018  )
        67           C1  tau(  67) = (   0.1427563   0.4121169   0.5686018  )
        68           N   tau(  68) = (   0.0713777   0.5357561   0.5686018  )
        69           N   tau(  69) = (  -0.0000005   0.6593868   0.5686018  )
        70           N   tau(  70) = (  -0.0713854   0.7830212   0.5686018  )
        71           N   tau(  71) = (   0.4996677   0.0412149   0.5686018  )
        72           N   tau(  72) = (   0.4282857   0.1648522   0.5686018  )
        73           N   tau(  73) = (   0.3569096   0.2884793   0.5686018  )
        74           N   tau(  74) = (   0.2855275   0.4121166   0.5686018  )
        75           C3  tau(  75) = (   0.2141417   0.5357601   0.5686018  )
        76           N   tau(  76) = (   0.1427636   0.6593906   0.5686018  )
        77           N   tau(  77) = (   0.0713854   0.7830212   0.5686018  )
        78           N   tau(  78) = (   0.6424346   0.0412132   0.5686018  )
        79           N   tau(  79) = (   0.5710498   0.1648522   0.5686018  )
        80           N   tau(  80) = (   0.4996677   0.2884827   0.5686018  )
        81           N   tau(  81) = (   0.4282916   0.4121166   0.5686018  )
        82           N   tau(  82) = (   0.3569090   0.5357581   0.5686018  )
        83           N   tau(  83) = (   0.2855237   0.6593929   0.5686018  )
        84           N   tau(  84) = (   0.2141456   0.7830234   0.5686018  )
        85           N   tau(  85) = (   0.7851890   0.0412121   0.5686018  )
        86           N   tau(  86) = (   0.7138108   0.1648472   0.5686018  )
        87           N   tau(  87) = (   0.6424259   0.2884793   0.5686018  )
        88           N   tau(  88) = (   0.5710439   0.4121166   0.5686018  )
        89           N   tau(  89) = (   0.4996672   0.5357547   0.5686018  )
        90           N   tau(  90) = (   0.4282852   0.6593876   0.5686018  )
        91           N   tau(  91) = (   0.3568998   0.7830222   0.5686018  )
        92           N   tau(  92) = (   0.9279491   0.0412143   0.5686018  )
        93           N   tau(  93) = (   0.8565710   0.1648494   0.5686018  )
        94           N   tau(  94) = (   0.7851929   0.2884777   0.5686018  )
        95           N   tau(  95) = (   0.7138080   0.4121166   0.5686018  )
        96           N   tau(  96) = (   0.6424255   0.5357581   0.5686018  )
        97           N   tau(  97) = (   0.5710493   0.6593876   0.5686018  )
        98           N   tau(  98) = (   0.4996672   0.7830203   0.5686018  )

     number of k points=     1
                       cart. coord. in units 2pi/alat
        k(    1) = (   0.0000000   0.0000000   0.0000000), wk =   1.0000000

     Dense  grid:   616895 G-vectors     FFT dimensions: ( 135, 135, 160)

     Occupations read from input 

      Spin-up

        1.0000   1.0000   1.0000   1.0000   1.0000   1.0000   1.0000   1.0000
        1.0000   1.0000   1.0000   1.0000   1.0000   1.0000   1.0000   1.0000
        1.0000   1.0000   1.0000   1.0000   1.0000   1.0000   1.0000   1.0000
        1.0000   1.0000   1.0000   1.0000   1.0000   1.0000   1.0000   1.0000
        1.0000   1.0000   1.0000   1.0000   1.0000   1.0000   1.0000   1.0000
        1.0000   1.0000   1.0000   1.0000   1.0000   1.0000   1.0000   1.0000
        1.0000   1.0000   1.0000   1.0000   1.0000   1.0000   1.0000   1.0000
        1.0000   1.0000   1.0000   1.0000   1.0000   1.0000   1.0000   1.0000
        1.0000   1.0000   1.0000   1.0000   1.0000   1.0000   1.0000   1.0000
        1.0000   1.0000   1.0000   1.0000   1.0000   1.0000   1.0000   1.0000
        1.0000   1.0000   1.0000   1.0000   1.0000   1.0000   1.0000   1.0000
        1.0000   1.0000   1.0000   1.0000   1.0000   1.0000   1.0000   1.0000
        1.0000   1.0000   1.0000   1.0000   1.0000   1.0000   1.0000   1.0000
        1.0000   1.0000   1.0000   1.0000   1.0000   1.0000   1.0000   1.0000
        1.0000   1.0000   1.0000   1.0000   1.0000   1.0000   1.0000   1.0000
        1.0000   1.0000   1.0000   1.0000   1.0000   1.0000   1.0000   1.0000
        1.0000   1.0000   1.0000   1.0000   1.0000   1.0000   1.0000   1.0000
        1.0000   1.0000   1.0000   1.0000   1.0000   1.0000   1.0000   1.0000
        1.0000   1.0000   1.0000   1.0000   1.0000   1.0000   1.0000   1.0000
        1.0000   1.0000   1.0000   1.0000   1.0000   1.0000   1.0000   1.0000
        1.0000   1.0000   1.0000   1.0000   1.0000   1.0000   1.0000   1.0000
        1.0000   1.0000   1.0000   1.0000   1.0000   1.0000   1.0000   1.0000
        1.0000   1.0000   1.0000   1.0000   1.0000   1.0000   1.0000   1.0000
        1.0000   1.0000   1.0000   1.0000   1.0000   1.0000   1.0000   1.0000
        1.0000   1.0000   1.0000   1.0000   0.0000   0.0000   0.0000   0.0000
        0.0000   0.0000   0.0000   0.0000   0.0000   0.0000   0.0000   0.0000
        0.0000   0.0000   0.0000   0.0000   0.0000   0.0000   0.0000   0.0000
        0.0000   0.0000   0.0000   0.0000   0.0000   0.0000   0.0000   0.0000
        0.0000   0.0000   0.0000   0.0000   0.0000   0.0000   0.0000   0.0000
        0.0000   0.0000   0.0000   0.0000   0.0000   0.0000   0.0000   0.0000
        0.0000   0.0000   0.0000   0.0000   0.0000

      Spin-down

        1.0000   1.0000   1.0000   1.0000   1.0000   1.0000   1.0000   1.0000
        1.0000   1.0000   1.0000   1.0000   1.0000   1.0000   1.0000   1.0000
        1.0000   1.0000   1.0000   1.0000   1.0000   1.0000   1.0000   1.0000
        1.0000   1.0000   1.0000   1.0000   1.0000   1.0000   1.0000   1.0000
        1.0000   1.0000   1.0000   1.0000   1.0000   1.0000   1.0000   1.0000
        1.0000   1.0000   1.0000   1.0000   1.0000   1.0000   1.0000   1.0000
        1.0000   1.0000   1.0000   1.0000   1.0000   1.0000   1.0000   1.0000
        1.0000   1.0000   1.0000   1.0000   1.0000   1.0000   1.0000   1.0000
        1.0000   1.0000   1.0000   1.0000   1.0000   1.0000   1.0000   1.0000
        1.0000   1.0000   1.0000   1.0000   1.0000   1.0000   1.0000   1.0000
        1.0000   1.0000   1.0000   1.0000   1.0000   1.0000   1.0000   1.0000
        1.0000   1.0000   1.0000   1.0000   1.0000   1.0000   1.0000   1.0000
        1.0000   1.0000   1.0000   1.0000   1.0000   1.0000   1.0000   1.0000
        1.0000   1.0000   1.0000   1.0000   1.0000   1.0000   1.0000   1.0000
        1.0000   1.0000   1.0000   1.0000   1.0000   1.0000   1.0000   1.0000
        1.0000   1.0000   1.0000   1.0000   1.0000   1.0000   1.0000   1.0000
        1.0000   1.0000   1.0000   1.0000   1.0000   1.0000   1.0000   1.0000
        1.0000   1.0000   1.0000   1.0000   1.0000   1.0000   1.0000   1.0000
        1.0000   1.0000   1.0000   1.0000   1.0000   1.0000   1.0000   1.0000
        1.0000   1.0000   1.0000   1.0000   1.0000   1.0000   1.0000   1.0000
        1.0000   1.0000   1.0000   1.0000   1.0000   1.0000   1.0000   1.0000
        1.0000   1.0000   1.0000   1.0000   1.0000   1.0000   1.0000   1.0000
        1.0000   1.0000   1.0000   1.0000   1.0000   1.0000   1.0000   1.0000
        1.0000   1.0000   1.0000   1.0000   1.0000   1.0000   1.0000   1.0000
        1.0000   1.0000   0.0000   0.0000   1.0000   0.0000   0.0000   0.0000
        0.0000   0.0000   0.0000   0.0000   0.0000   0.0000   0.0000   0.0000
        0.0000   0.0000   0.0000   0.0000   0.0000   0.0000   0.0000   0.0000
        0.0000   0.0000   0.0000   0.0000   0.0000   0.0000   0.0000   0.0000
        0.0000   0.0000   0.0000   0.0000   0.0000   0.0000   0.0000   0.0000
        0.0000   0.0000   0.0000   0.0000   0.0000   0.0000   0.0000   0.0000
        0.0000   0.0000   0.0000   0.0000   0.0000

     Estimated max dynamical RAM per process >     122.14 MB

     Estimated total dynamical RAM >       7.63 GB
     Generating pointlists ...
     new r_m :   0.0340 (alat units)  1.1299 (a.u.) for type    1
     new r_m :   0.0340 (alat units)  1.1299 (a.u.) for type    2
     new r_m :   0.0340 (alat units)  1.1300 (a.u.) for type    3
     new r_m :   0.0340 (alat units)  1.1300 (a.u.) for type    4
     new r_m :   0.0340 (alat units)  1.1300 (a.u.) for type    5

     Check: negative core charge=   -0.000006

     Initial potential from superposition of free atoms

     starting charge  390.98597, renormalised to  391.00000

     negative rho (up, down):  5.431E-02 5.945E-02
     Starting wfcs are  392 randomized atomic wfcs
     Checking if some PAW data can be deallocated... 

     total cpu time spent up to now is        7.4 secs

     Self-consistent Calculation

     iteration #  1     ecut=    40.00 Ry     beta= 0.70
     CG style diagonalization
     ethr =  1.00E-02,  avg # of iterations =  3.1

     negative rho (up, down):  3.271E-01 8.495E-03

     total cpu time spent up to now is       43.3 secs

     total energy              =   -1933.18761895 Ry
     Harris-Foulkes estimate   =   -1946.27701226 Ry
     estimated scf accuracy    <      19.88230796 Ry

     total magnetization       =     1.00 Bohr mag/cell
     absolute magnetization    =     2.44 Bohr mag/cell

     iteration #  2     ecut=    40.00 Ry     beta= 0.70
     CG style diagonalization
     ethr =  5.08E-03,  avg # of iterations =  4.0

     negative rho (up, down):  3.633E-01 6.855E-03

     total cpu time spent up to now is       78.4 secs

     total energy              =   -1937.33354168 Ry
     Harris-Foulkes estimate   =   -1943.61740573 Ry
     estimated scf accuracy    <      12.26758229 Ry

     total magnetization       =     1.00 Bohr mag/cell
     absolute magnetization    =     2.55 Bohr mag/cell

     iteration #  3     ecut=    40.00 Ry     beta= 0.70
     CG style diagonalization
     ethr =  3.14E-03,  avg # of iterations =  3.8

     negative rho (up, down):  4.056E-01 9.204E-03

     total cpu time spent up to now is      112.6 secs

     total energy              =   -1939.57211935 Ry
     Harris-Foulkes estimate   =   -1940.39708267 Ry
     estimated scf accuracy    <       1.55928644 Ry

     total magnetization       =     1.00 Bohr mag/cell
     absolute magnetization    =     3.08 Bohr mag/cell

     iteration #  4     ecut=    40.00 Ry     beta= 0.70
     CG style diagonalization
     ethr =  3.99E-04,  avg # of iterations =  4.1

     negative rho (up, down):  4.526E-01 8.825E-03

     total cpu time spent up to now is      157.7 secs

     total energy              =   -1939.83073108 Ry
     Harris-Foulkes estimate   =   -1940.43286314 Ry
     estimated scf accuracy    <       2.02698599 Ry

     total magnetization       =     1.00 Bohr mag/cell
     absolute magnetization    =     2.96 Bohr mag/cell

     iteration #  5     ecut=    40.00 Ry     beta= 0.70
     CG style diagonalization
     ethr =  3.99E-04,  avg # of iterations =  3.3

     negative rho (up, down):  4.636E-01 7.775E-03

     total cpu time spent up to now is      184.9 secs

     total energy              =   -1940.10478661 Ry
     Harris-Foulkes estimate   =   -1940.18752673 Ry
     estimated scf accuracy    <       0.22904814 Ry

     total magnetization       =     1.00 Bohr mag/cell
     absolute magnetization    =     2.33 Bohr mag/cell

     iteration #  6     ecut=    40.00 Ry     beta= 0.70
     CG style diagonalization
     c_bands:  1 eigenvalues not converged
     c_bands:  3 eigenvalues not converged
     ethr =  5.86E-05,  avg # of iterations =  3.8

     negative rho (up, down):  4.694E-01 6.805E-03

     total cpu time spent up to now is      218.1 secs

     total energy              =   -1940.13327789 Ry
     Harris-Foulkes estimate   =   -1940.14470910 Ry
     estimated scf accuracy    <       0.04335067 Ry

     total magnetization       =     1.00 Bohr mag/cell
     absolute magnetization    =     2.31 Bohr mag/cell

     iteration #  7     ecut=    40.00 Ry     beta= 0.70
     CG style diagonalization
     c_bands:  4 eigenvalues not converged
     c_bands:  1 eigenvalues not converged
     ethr =  1.11E-05,  avg # of iterations =  3.9

     negative rho (up, down):  4.801E-01 5.901E-03

     total cpu time spent up to now is      251.9 secs

     total energy              =   -1940.13811262 Ry
     Harris-Foulkes estimate   =   -1940.14157270 Ry
     estimated scf accuracy    <       0.01623219 Ry

     total magnetization       =     1.00 Bohr mag/cell
     absolute magnetization    =     2.32 Bohr mag/cell

     iteration #  8     ecut=    40.00 Ry     beta= 0.70
     CG style diagonalization
     c_bands:  5 eigenvalues not converged
     c_bands:  3 eigenvalues not converged
     ethr =  4.15E-06,  avg # of iterations =  4.0

     negative rho (up, down):  4.829E-01 5.961E-03

     total cpu time spent up to now is      287.1 secs

     total energy              =   -1940.14135541 Ry
     Harris-Foulkes estimate   =   -1940.14241878 Ry
     estimated scf accuracy    <       0.00319694 Ry

     total magnetization       =     1.00 Bohr mag/cell
     absolute magnetization    =     2.34 Bohr mag/cell

     iteration #  9     ecut=    40.00 Ry     beta= 0.70
     CG style diagonalization
     c_bands:  3 eigenvalues not converged
     c_bands:  5 eigenvalues not converged
     ethr =  8.18E-07,  avg # of iterations =  5.9

     negative rho (up, down):  4.840E-01 6.013E-03

     total cpu time spent up to now is      338.0 secs

     total energy              =   -1940.14218522 Ry
     Harris-Foulkes estimate   =   -1940.14224097 Ry
     estimated scf accuracy    <       0.00051905 Ry

     total magnetization       =     1.00 Bohr mag/cell
     absolute magnetization    =     2.36 Bohr mag/cell

     iteration # 10     ecut=    40.00 Ry     beta= 0.70
     CG style diagonalization
     c_bands:  1 eigenvalues not converged
     ethr =  1.33E-07,  avg # of iterations =  3.7

     negative rho (up, down):  4.845E-01 6.120E-03

     total cpu time spent up to now is      370.2 secs

     total energy              =   -1940.14233816 Ry
     Harris-Foulkes estimate   =   -1940.14243732 Ry
     estimated scf accuracy    <       0.00041688 Ry

     total magnetization       =     1.00 Bohr mag/cell
     absolute magnetization    =     2.37 Bohr mag/cell

     iteration # 11     ecut=    40.00 Ry     beta= 0.70
     CG style diagonalization
     ethr =  1.07E-07,  avg # of iterations =  3.3

     negative rho (up, down):  4.844E-01 6.182E-03

     total cpu time spent up to now is      397.9 secs

     total energy              =   -1940.14244002 Ry
     Harris-Foulkes estimate   =   -1940.14244315 Ry
     estimated scf accuracy    <       0.00005650 Ry

     total magnetization       =     1.00 Bohr mag/cell
     absolute magnetization    =     2.37 Bohr mag/cell

     iteration # 12     ecut=    40.00 Ry     beta= 0.70
     CG style diagonalization
     ethr =  1.44E-08,  avg # of iterations =  3.8

     negative rho (up, down):  4.847E-01 6.276E-03

     total cpu time spent up to now is      430.0 secs

     total energy              =   -1940.14246573 Ry
     Harris-Foulkes estimate   =   -1940.14246546 Ry
     estimated scf accuracy    <       0.00002764 Ry

     total magnetization       =     1.00 Bohr mag/cell
     absolute magnetization    =     2.38 Bohr mag/cell

     iteration # 13     ecut=    40.00 Ry     beta= 0.70
     CG style diagonalization
     ethr =  7.07E-09,  avg # of iterations =  3.6

     negative rho (up, down):  4.846E-01 6.302E-03

     total cpu time spent up to now is      460.3 secs

     total energy              =   -1940.14247524 Ry
     Harris-Foulkes estimate   =   -1940.14247414 Ry
     estimated scf accuracy    <       0.00000279 Ry

     total magnetization       =     1.00 Bohr mag/cell
     absolute magnetization    =     2.38 Bohr mag/cell

     iteration # 14     ecut=    40.00 Ry     beta= 0.70
     CG style diagonalization
     ethr =  7.14E-10,  avg # of iterations =  4.0

     negative rho (up, down):  4.846E-01 6.344E-03

     total cpu time spent up to now is      494.8 secs

     total energy              =   -1940.14247731 Ry
     Harris-Foulkes estimate   =   -1940.14247727 Ry
     estimated scf accuracy    <       0.00000271 Ry

     total magnetization       =     1.00 Bohr mag/cell
     absolute magnetization    =     2.38 Bohr mag/cell

     iteration # 15     ecut=    40.00 Ry     beta= 0.70
     CG style diagonalization
     ethr =  6.92E-10,  avg # of iterations =  3.7

     negative rho (up, down):  4.846E-01 6.348E-03
 
     Magnetic moment per site:
     atom:    1    charge:    0.8803    magn:   -0.0002    constr:    0.0000
     atom:    2    charge:    0.8816    magn:   -0.0007    constr:    0.0000
     atom:    3    charge:    0.8805    magn:   -0.0004    constr:    0.0000
     atom:    4    charge:    0.8797    magn:    0.0002    constr:    0.0000
     atom:    5    charge:    0.8805    magn:   -0.0008    constr:    0.0000
     atom:    6    charge:    0.8813    magn:    0.0002    constr:    0.0000
     atom:    7    charge:    0.8805    magn:   -0.0007    constr:    0.0000
     atom:    8    charge:    0.8823    magn:   -0.0009    constr:    0.0000
     atom:    9    charge:    0.8827    magn:   -0.0017    constr:    0.0000
     atom:   10    charge:    0.8836    magn:   -0.0035    constr:    0.0000
     atom:   11    charge:    0.8819    magn:   -0.0002    constr:    0.0000
     atom:   12    charge:    0.8816    magn:   -0.0014    constr:    0.0000
     atom:   13    charge:    0.8819    magn:    0.0003    constr:    0.0000
     atom:   14    charge:    0.8813    magn:    0.0002    constr:    0.0000
     atom:   15    charge:    0.8825    magn:   -0.0002    constr:    0.0000
     atom:   16    charge:    0.8844    magn:   -0.0051    constr:    0.0000
     atom:   17    charge:    0.9202    magn:   -0.0150    constr:    0.0000
     atom:   18    charge:    0.9193    magn:   -0.0088    constr:    0.0000
     atom:   19    charge:    0.8883    magn:   -0.0095    constr:    0.0000
     atom:   20    charge:    0.8816    magn:   -0.0014    constr:    0.0000
     atom:   21    charge:    0.8805    magn:   -0.0008    constr:    0.0000
     atom:   22    charge:    0.8804    magn:    0.0001    constr:    0.0000
     atom:   23    charge:    0.8817    magn:   -0.0004    constr:    0.0000
     atom:   24    charge:    0.8839    magn:   -0.0064    constr:    0.0000
     atom:   25    charge:    1.7238    magn:   -0.1803    constr:    0.0000
     atom:   26    charge:    0.9192    magn:   -0.0087    constr:    0.0000
     atom:   27    charge:    0.8819    magn:   -0.0002    constr:    0.0000
     atom:   28    charge:    0.8797    magn:    0.0002    constr:    0.0000
     atom:   29    charge:    0.8807    magn:   -0.0006    constr:    0.0000
     atom:   30    charge:    0.8816    magn:    0.0003    constr:    0.0000
     atom:   31    charge:    0.8822    magn:   -0.0007    constr:    0.0000
     atom:   32    charge:    0.8839    magn:   -0.0064    constr:    0.0000
     atom:   33    charge:    0.9202    magn:   -0.0150    constr:    0.0000
     atom:   34    charge:    0.8836    magn:   -0.0035    constr:    0.0000
     atom:   35    charge:    0.8805    magn:   -0.0003    constr:    0.0000
     atom:   36    charge:    0.8823    magn:    0.0004    constr:    0.0000
     atom:   37    charge:    0.8818    magn:    0.0002    constr:    0.0000
     atom:   38    charge:    0.8816    magn:    0.0003    constr:    0.0000
     atom:   39    charge:    0.8817    magn:   -0.0004    constr:    0.0000
     atom:   40    charge:    0.8844    magn:   -0.0051    constr:    0.0000
     atom:   41    charge:    0.8827    magn:   -0.0017    constr:    0.0000
     atom:   42    charge:    0.8816    magn:   -0.0007    constr:    0.0000
     atom:   43    charge:    0.8823    magn:   -0.0010    constr:    0.0000
     atom:   44    charge:    0.8823    magn:    0.0003    constr:    0.0000
     atom:   45    charge:    0.8807    magn:   -0.0006    constr:    0.0000
     atom:   46    charge:    0.8804    magn:    0.0001    constr:    0.0000
     atom:   47    charge:    0.8825    magn:   -0.0002    constr:    0.0000
     atom:   48    charge:    0.8823    magn:   -0.0009    constr:    0.0000
     atom:   49    charge:    0.8803    magn:   -0.0002    constr:    0.0000
     atom:   50    charge:    2.8681    magn:    0.0019    constr:    0.0000
     atom:   51    charge:    2.8714    magn:    0.0009    constr:    0.0000
     atom:   52    charge:    2.8714    magn:    0.0111    constr:    0.0000
     atom:   53    charge:    2.8679    magn:    0.0056    constr:    0.0000
     atom:   54    charge:    2.8684    magn:    0.0006    constr:    0.0000
     atom:   55    charge:    2.8730    magn:   -0.0003    constr:    0.0000
     atom:   56    charge:    2.8714    magn:   -0.0002    constr:    0.0000
     atom:   57    charge:    2.8693    magn:   -0.0018    constr:    0.0000
     atom:   58    charge:    2.8681    magn:    0.0084    constr:    0.0000
     atom:   59    charge:    2.8669    magn:    0.0409    constr:    0.0000
     atom:   60    charge:    2.8675    magn:    0.0205    constr:    0.0000
     atom:   61    charge:    2.8679    magn:    0.0118    constr:    0.0000
     atom:   62    charge:    2.8710    magn:    0.0036    constr:    0.0000
     atom:   63    charge:    2.8730    magn:   -0.0003    constr:    0.0000
     atom:   64    charge:    2.8673    magn:    0.0007    constr:    0.0000
     atom:   65    charge:    2.8693    magn:    0.0056    constr:    0.0000
     atom:   66    charge:    2.8645    magn:    0.0124    constr:    0.0000
     atom:   67    charge:    1.8080    magn:    0.1568    constr:    0.0000
     atom:   68    charge:    2.8597    magn:    0.0726    constr:    0.0000
     atom:   69    charge:    2.8680    magn:    0.0118    constr:    0.0000
     atom:   70    charge:    2.8684    magn:    0.0005    constr:    0.0000
     atom:   71    charge:    2.8683    magn:    0.0004    constr:    0.0000
     atom:   72    charge:    2.8694    magn:    0.0002    constr:    0.0000
     atom:   73    charge:    2.8673    magn:    0.0154    constr:    0.0000
     atom:   74    charge:    2.8254    magn:    0.1083    constr:    0.0000
     atom:   75    charge:    1.8080    magn:    0.1567    constr:    0.0000
     atom:   76    charge:    2.8674    magn:    0.0203    constr:    0.0000
     atom:   77    charge:    2.8679    magn:    0.0055    constr:    0.0000
     atom:   78    charge:    2.8674    magn:    0.0005    constr:    0.0000
     atom:   79    charge:    2.8694    magn:    0.0003    constr:    0.0000
     atom:   80    charge:    2.8744    magn:    0.0067    constr:    0.0000
     atom:   81    charge:    2.8672    magn:    0.0154    constr:    0.0000
     atom:   82    charge:    2.8644    magn:    0.0123    constr:    0.0000
     atom:   83    charge:    2.8668    magn:    0.0408    constr:    0.0000
     atom:   84    charge:    2.8715    magn:    0.0109    constr:    0.0000
     atom:   85    charge:    2.8688    magn:    0.0018    constr:    0.0000
     atom:   86    charge:    2.8701    magn:    0.0000    constr:    0.0000
     atom:   87    charge:    2.8694    magn:    0.0003    constr:    0.0000
     atom:   88    charge:    2.8694    magn:    0.0002    constr:    0.0000
     atom:   89    charge:    2.8693    magn:    0.0056    constr:    0.0000
     atom:   90    charge:    2.8681    magn:    0.0083    constr:    0.0000
     atom:   91    charge:    2.8714    magn:    0.0008    constr:    0.0000
     atom:   92    charge:    2.8682    magn:    0.0006    constr:    0.0000
     atom:   93    charge:    2.8687    magn:    0.0019    constr:    0.0000
     atom:   94    charge:    2.8673    magn:    0.0006    constr:    0.0000
     atom:   95    charge:    2.8683    magn:    0.0004    constr:    0.0000
     atom:   96    charge:    2.8673    magn:    0.0008    constr:    0.0000
     atom:   97    charge:    2.8693    magn:   -0.0018    constr:    0.0000
     atom:   98    charge:    2.8681    magn:    0.0018    constr:    0.0000

     total cpu time spent up to now is      526.4 secs

     End of self-consistent calculation

 ------ SPIN UP ------------


          k = 0.0000 0.0000 0.0000 ( 77079 PWs)   bands (ev):

   -21.8061 -21.5853 -21.3854 -21.3827 -21.3594 -21.3008 -21.2698 -20.8478
   -20.6504 -20.6438 -20.6137 -20.5469 -20.5377 -20.3980 -20.2990 -20.2871
   -20.2761 -20.1251 -20.1154 -19.5753 -19.4250 -19.3991 -19.3784 -19.3754
   -19.3678 -19.3576 -19.3466 -19.3288 -19.3046 -19.1805 -19.1674 -19.0271
   -18.9743 -18.9705 -18.9463 -18.7763 -18.7580 -18.5505 -18.5309 -18.5209
   -18.5113 -18.4494 -18.4019 -18.3895 -18.3550 -18.3321 -18.3303 -16.9220
   -15.1658 -13.1493 -12.7721 -12.7707 -12.7411 -12.7086 -12.7074 -12.6267
   -12.5601 -12.5295 -12.5110 -12.4938 -12.4104 -12.1378 -12.0685 -12.0542
   -12.0319 -11.9899 -11.9593 -11.5346 -11.4077 -11.3872 -11.3850 -11.3751
   -11.3584 -11.3543 -11.3317 -11.3082 -11.2965 -11.1136 -11.0563 -10.8322
   -10.7087 -10.6951 -10.6765 -10.6507 -10.5372 -10.0380 -10.0020  -9.9998
    -9.9270  -9.8842  -9.8207  -9.3859  -9.3355  -9.2992  -9.2904  -9.2754
    -9.2662  -9.1954  -9.0094  -8.9301  -8.9224  -8.8849  -8.8819  -8.8644
    -8.8604  -8.8564  -8.8498  -8.8359  -8.8208  -8.8200  -8.8189  -8.8142
    -8.7943  -8.7917  -8.7750  -8.7518  -8.7469  -8.7139  -8.6743  -8.6555
    -8.5286  -8.5167  -8.1918  -8.1526  -8.1519  -8.0953  -8.0538  -7.9316
    -7.8745  -7.8223  -7.8176  -7.7864  -7.7343  -7.7293  -7.5410  -7.5106
    -7.4776  -7.4624  -7.4440  -7.4312  -7.4255  -7.3858  -7.3784  -7.3456
    -7.3324  -7.3259  -7.3258  -7.2445  -7.2338  -7.2208  -7.2131  -7.0694
    -7.0023  -6.9646  -6.8991  -6.8237  -6.6827  -6.6172  -6.2343  -6.1832
    -6.1750  -6.1403  -6.0892  -6.0669  -6.0491  -6.0473  -6.0415  -6.0355
    -6.0294  -6.0259  -6.0206  -5.9792  -5.9086  -5.8284  -5.8164  -5.7646
    -5.5138  -5.4477  -5.4429  -5.4417  -5.3327  -5.2892  -5.1603  -5.1546
    -4.7938  -4.7906  -4.7603  -4.7512  -4.6867  -4.6588  -4.5580  -4.5075
    -4.5072  -4.4952  -4.4504  -3.7046   0.1868   0.3179   0.7086   0.7152
     0.7304   0.7518   0.7636   0.7671   0.7895   0.8092   0.8159   0.8236
     0.8288   0.8421   0.8672   0.8853   0.8954   0.9282   0.9284   0.9554
     1.0350   1.1792   1.2368   1.2558   1.2706   1.3206   1.3273   1.3334
     1.3409   1.3476   1.3513   1.3728   1.4014   1.4343   1.4380   1.4417
     1.4491   1.4581   1.4815   1.8851   2.1097   2.1100   2.1247   2.1281
     2.1347   2.1483   2.1550   2.2117   2.3429

 ------ SPIN DOWN ----------


          k = 0.0000 0.0000 0.0000 ( 77079 PWs)   bands (ev):

   -21.7785 -21.5500 -21.3814 -21.3795 -21.3529 -21.2851 -21.2412 -20.8169
   -20.6404 -20.6298 -20.6048 -20.5376 -20.5250 -20.3870 -20.2861 -20.2767
   -20.2517 -20.0979 -20.0962 -19.5438 -19.4133 -19.3922 -19.3713 -19.3660
   -19.3618 -19.3494 -19.3243 -19.2969 -19.2900 -19.1631 -19.1526 -19.0155
   -18.9628 -18.9612 -18.9197 -18.7591 -18.7388 -18.5353 -18.5130 -18.5047
   -18.4937 -18.4400 -18.3844 -18.3778 -18.3476 -18.3117 -18.3045 -16.7449
   -14.8413 -13.1665 -12.7686 -12.7686 -12.7385 -12.7071 -12.7070 -12.6277
   -12.5575 -12.5285 -12.5070 -12.4798 -12.4073 -12.1340 -12.0681 -12.0492
   -12.0222 -11.9840 -11.9520 -11.5348 -11.4006 -11.3834 -11.3809 -11.3725
   -11.3564 -11.3513 -11.3254 -11.2975 -11.2854 -11.0723 -11.0358 -10.8362
   -10.7078 -10.6946 -10.6716 -10.6481 -10.5304 -10.0337  -9.9974  -9.9898
    -9.9164  -9.8644  -9.8035  -9.3840  -9.3121  -9.2914  -9.2853  -9.2717
    -9.2631  -9.1895  -9.0052  -8.9078  -8.8891  -8.8799  -8.8792  -8.8599
    -8.8559  -8.8524  -8.8475  -8.8319  -8.8153  -8.8145  -8.8140  -8.8088
    -8.7836  -8.7821  -8.7727  -8.7336  -8.7224  -8.6602  -8.6452  -8.6410
    -8.5053  -8.4951  -8.1890  -8.1485  -8.1476  -8.0824  -8.0416  -7.8845
    -7.8500  -7.8058  -7.7932  -7.7733  -7.7043  -7.6932  -7.5359  -7.5014
    -7.4740  -7.4606  -7.4428  -7.4303  -7.3967  -7.3816  -7.3728  -7.3214
    -7.3187  -7.3160  -7.2882  -7.2163  -7.2045  -7.1814  -7.1700  -7.0470
    -6.9999  -6.9609  -6.8830  -6.7994  -6.6570  -6.5871  -6.1765  -6.1752
    -6.1698  -6.1355  -6.0694  -6.0541  -6.0341  -6.0275  -6.0237  -6.0236
    -6.0088  -5.9912  -5.9579  -5.9529  -5.8414  -5.7899  -5.7792  -5.7350
    -5.4863  -5.4315  -5.4282  -5.3949  -5.2549  -5.2116  -5.0909  -5.0879
    -4.7573  -4.7500  -4.7279  -4.7137  -4.6334  -4.6156  -4.5336  -4.4950
    -4.4735  -4.4626  -4.1412  -3.0169  -0.0546   0.1831   0.7055   0.7136
     0.7156   0.7496   0.7613   0.7624   0.7885   0.8073   0.8135   0.8151
     0.8219   0.8393   0.8610   0.8787   0.8938   0.9151   0.9281   0.9607
     1.0049   1.1671   1.2452   1.2541   1.2643   1.3191   1.3246   1.3268
     1.3329   1.3449   1.3517   1.3917   1.3965   1.4344   1.4385   1.4420
     1.4492   1.4580   1.4807   1.8836   2.1038   2.1085   2.1155   2.1217
     2.1222   2.1397   2.1515   2.2117   2.3703

     highest occupied, lowest unoccupied level (ev):    -3.7046   -4.1412

!    total energy              =   -1940.14247826 Ry
     Harris-Foulkes estimate   =   -1940.14247843 Ry
     estimated scf accuracy    <       0.00000032 Ry

     total all-electron energy =     -7769.966955 Ry

     The total energy is the sum of the following terms:

     one-electron contribution =  -10680.37997589 Ry
     hartree contribution      =    5426.09521300 Ry
     xc contribution           =    -431.02199088 Ry
     ewald contribution        =    4388.62168141 Ry
     DFT-D3 Dispersion         =      -0.27079554 Ry
     one-center paw contrib.   =    -643.18661036 Ry

     total magnetization       =     1.00 Bohr mag/cell
     absolute magnetization    =     2.39 Bohr mag/cell

     convergence has been achieved in  15 iterations

     negative rho (up, down):  4.846E-01 6.348E-03

     Forces acting on atoms (cartesian axes, Ry/au):

     atom    1 type  1   force =    -0.00045433   -0.00188720    0.00000000
     atom    2 type  1   force =     0.00127802   -0.00220426    0.00000000
     atom    3 type  1   force =    -0.00118026    0.00177325    0.00000000
     atom    4 type  1   force =    -0.00192531   -0.00024367    0.00000000
     atom    5 type  1   force =     0.00236376   -0.00230676    0.00000000
     atom    6 type  1   force =     0.00019889    0.00164158    0.00000000
     atom    7 type  1   force =    -0.00235165    0.00135199    0.00000000
     atom    8 type  1   force =    -0.00436078   -0.00163521    0.00000000
     atom    9 type  1   force =    -0.00488218   -0.00071872    0.00000000
     atom   10 type  1   force =    -0.00192159    0.00370133    0.00000000
     atom   11 type  1   force =     0.00091836   -0.00776558    0.00000000
     atom   12 type  1   force =    -0.00209939   -0.00317835    0.00000000
     atom   13 type  1   force =    -0.00149792    0.00086521    0.00000000
     atom   14 type  1   force =    -0.00132317   -0.00099712    0.00000000
     atom   15 type  1   force =     0.00167188   -0.00332519    0.00000000
     atom   16 type  1   force =     0.00197547    0.01101766    0.00000000
     atom   17 type  1   force =    -0.00420596   -0.07197682    0.00000000
     atom   18 type  1   force =    -0.06326740    0.02934817    0.00000000
     atom   19 type  1   force =     0.00354359   -0.00203919    0.00000000
     atom   20 type  1   force =     0.00171443    0.00339471    0.00000000
     atom   21 type  1   force =     0.00317345   -0.00089393    0.00000000
     atom   22 type  1   force =     0.00257897   -0.00471503    0.00000000
     atom   23 type  1   force =    -0.00068436   -0.00643477    0.00000000
     atom   24 type  1   force =    -0.01300343   -0.02465000    0.00000000
     atom   25 type  4   force =     0.04810713   -0.02776801    0.00000000
     atom   26 type  1   force =    -0.05704663    0.04009810    0.00000000
     atom   27 type  1   force =     0.00716983    0.00307676    0.00000000
     atom   28 type  1   force =    -0.00075113    0.00178620    0.00000000
     atom   29 type  1   force =    -0.00203152   -0.00383092    0.00000000
     atom   30 type  1   force =     0.00132497   -0.00580427    0.00000000
     atom   31 type  1   force =     0.00734242   -0.00423630    0.00000000
     atom   32 type  1   force =     0.01484920    0.02359389    0.00000000
     atom   33 type  1   force =     0.06023203    0.03961841    0.00000000
     atom   34 type  1   force =    -0.00416125   -0.00018417    0.00000000
     atom   35 type  1   force =    -0.00211816    0.00012143    0.00000000
     atom   36 type  1   force =    -0.00093575   -0.00219407    0.00000000
     atom   37 type  1   force =    -0.00056241    0.00033033    0.00000000
     atom   38 type  1   force =     0.00569585    0.00175410    0.00000000
     atom   39 type  1   force =     0.00523344    0.00381376    0.00000000
     atom   40 type  1   force =    -0.00855349   -0.00721523    0.00000000
     atom   41 type  1   force =    -0.00181106    0.00457583    0.00000000
     atom   42 type  1   force =     0.00254266   -0.00001299    0.00000000
     atom   43 type  1   force =     0.00394921   -0.00226933    0.00000000
     atom   44 type  1   force =     0.00144246    0.00192100    0.00000000
     atom   45 type  1   force =     0.00231086    0.00367142    0.00000000
     atom   46 type  1   force =     0.00537620    0.00012161    0.00000000
     atom   47 type  1   force =     0.00371297    0.00021260    0.00000000
     atom   48 type  1   force =    -0.00077192    0.00458897    0.00000000
     atom   49 type  1   force =     0.00141651    0.00133905    0.00000000
     atom   50 type  2   force =     0.00035871    0.00003649    0.00000000
     atom   51 type  2   force =     0.00003788   -0.00199359    0.00000000
     atom   52 type  2   force =    -0.00017413    0.00055874    0.00000000
     atom   53 type  2   force =    -0.00138637    0.00095579    0.00000000
     atom   54 type  2   force =    -0.00115506   -0.00028377    0.00000000
     atom   55 type  2   force =     0.00031558    0.00041195    0.00000000
     atom   56 type  2   force =     0.00035529   -0.00019926    0.00000000
     atom   57 type  2   force =     0.00073086   -0.00078664    0.00000000
     atom   58 type  2   force =    -0.00143895   -0.00276098    0.00000000
     atom   59 type  2   force =    -0.00238240   -0.01635230    0.00000000
     atom   60 type  2   force =    -0.01509743    0.00455381    0.00000000
     atom   61 type  2   force =    -0.00553731    0.00250194    0.00000000
     atom   62 type  2   force =    -0.00000177    0.00000143    0.00000000
     atom   63 type  2   force =    -0.00020395   -0.00047804    0.00000000
     atom   64 type  2   force =     0.00057131    0.00114471    0.00000000
     atom   65 type  2   force =     0.00448181   -0.00084917    0.00000000
     atom   66 type  2   force =     0.01711469   -0.02565418    0.00000000
     atom   67 type  3   force =     0.09322918    0.02956134    0.00000000
     atom   68 type  2   force =    -0.04769703    0.02753843    0.00000000
     atom   69 type  2   force =    -0.00493427    0.00355527    0.00000000
     atom   70 type  2   force =    -0.00032281    0.00113948    0.00000000
     atom   71 type  2   force =    -0.00045565    0.00074905    0.00000000
     atom   72 type  2   force =    -0.00053359    0.00339187    0.00000000
     atom   73 type  2   force =    -0.00415053    0.01179539    0.00000000
     atom   74 type  2   force =    -0.06801771    0.03926359    0.00000000
     atom   75 type  5   force =     0.02100760   -0.09552897    0.00000000
     atom   76 type  2   force =    -0.01149698    0.01082007    0.00000000
     atom   77 type  2   force =    -0.00151937    0.00072798    0.00000000
     atom   78 type  2   force =    -0.00130295    0.00078085    0.00000000
     atom   79 type  2   force =    -0.00187154    0.00141878    0.00000000
     atom   80 type  2   force =    -0.00603958    0.00348526    0.00000000
     atom   81 type  2   force =    -0.01229164   -0.00231380    0.00000000
     atom   82 type  2   force =     0.03078031   -0.00200395    0.00000000
     atom   83 type  2   force =     0.01295797    0.01025839    0.00000000
     atom   84 type  2   force =    -0.00057057   -0.00011634    0.00000000
     atom   85 type  2   force =    -0.00026972   -0.00039782    0.00000000
     atom   86 type  2   force =    -0.00095313    0.00052373    0.00000000
     atom   87 type  2   force =    -0.00217563    0.00090763    0.00000000
     atom   88 type  2   force =    -0.00320226   -0.00123564    0.00000000
     atom   89 type  2   force =     0.00298521   -0.00345697    0.00000000
     atom   90 type  2   force =     0.00168314    0.00262603    0.00000000
     atom   91 type  2   force =     0.00172660    0.00097903    0.00000000
     atom   92 type  2   force =     0.00011820   -0.00006226    0.00000000
     atom   93 type  2   force =     0.00021977    0.00040609    0.00000000
     atom   94 type  2   force =    -0.00133150    0.00075353    0.00000000
     atom   95 type  2   force =    -0.00088193    0.00002976    0.00000000
     atom   96 type  2   force =    -0.00070449   -0.00106556    0.00000000
     atom   97 type  2   force =     0.00104851   -0.00024307    0.00000000
     atom   98 type  2   force =     0.00015606   -0.00032439    0.00000000

     Total force =     0.240014     Total SCF correction =     0.001068


     Computing stress (Cartesian axis) and pressure


     negative rho (up, down):  4.846E-01 6.348E-03
          total   stress  (Ry/bohr**3)                   (kbar)     P=    1.96
   0.00002084   0.00000145   0.00000000          3.07      0.21      0.00
   0.00000145   0.00002251   0.00000000          0.21      3.31      0.00
   0.00000000   0.00000000  -0.00000344          0.00      0.00     -0.51


     BFGS Geometry Optimization

     number of scf cycles    =   1
     number of bfgs steps    =   0

     enthalpy new            =   -1940.1424782612 Ry

     new trust radius        =       0.0978115678 bohr
     new conv_thr            =       0.0000010000 Ry

     new unit-cell volume =  36143.73218 a.u.^3 (  5355.94845 Ang^3 )
     density =      0.36398 g/cm^3

CELL_PARAMETERS (alat= 33.23461096)
   0.999855142   0.000036189   0.000000000
  -0.499896230   0.865918078   0.000000000
   0.000000000   0.000000000   1.137203616

ATOMIC_POSITIONS (crystal)
B        0.047576737   0.095180834   0.500000000
B        0.047619037   0.238021909   0.500000000
B        0.047616263   0.381007273   0.500000000
B        0.047562041   0.523804152   0.500000000
B        0.047652046   0.666595155   0.500000000
B        0.047653400   0.809577404   0.500000000
B        0.047575919   0.952423782   0.500000000
B        0.190327049   0.095186537   0.500000000
B        0.190320177   0.238073556   0.500000000
B        0.190482292   0.381080298   0.500000000
B        0.190377166   0.523543015   0.500000000
B        0.190366046   0.666562006   0.500000000
B        0.190445746   0.809554274   0.500000000
B        0.190422496   0.952346458   0.500000000
B        0.333324021   0.095126086   0.500000000
B        0.333582491   0.238472843   0.500000000
B        0.331946797   0.378443200   0.500000000
B        0.331932739   0.524833350   0.500000000
B        0.333404246   0.666596103   0.500000000
B        0.333438124   0.809633516   0.500000000
B        0.333404656   0.952347946   0.500000000
B        0.476183218   0.095081346   0.500000000
B        0.476054730   0.237869879   0.500000000
B        0.475367505   0.380085249   0.500000000
C2       0.477153135   0.522847212   0.500000000
B        0.475166420   0.668066601   0.500000000
B        0.476456362   0.809622462   0.500000000
B        0.476195810   0.952437855   0.500000000
B        0.618929981   0.095112084   0.500000000
B        0.618989605   0.237898423   0.500000000
B        0.619198042   0.380802106   0.500000000
B        0.619914985   0.524632759   0.500000000
B        0.621556621   0.668052769   0.500000000
B        0.618919893   0.809517790   0.500000000
B        0.618992713   0.952383247   0.500000000
B        0.761843893   0.095165412   0.500000000
B        0.761895212   0.238105082   0.500000000
B        0.762101770   0.381010375   0.500000000
B        0.762130274   0.523945399   0.500000000
B        0.761527244   0.666417662   0.500000000
B        0.761926471   0.809679419   0.500000000
B        0.761977788   0.952380673   0.500000000
B        0.904836070   0.095164490   0.500000000
B        0.904835132   0.238156579   0.500000000
B        0.904888126   0.381069901   0.500000000
B        0.904918713   0.523816697   0.500000000
B        0.904873797   0.666675905   0.500000000
B        0.904813143   0.809672771   0.500000000
B        0.904819481   0.952423332   0.500000000
N        0.095255284   0.047623193   0.500000000
N        0.095208177   0.190414073   0.500000000
N        0.095244818   0.333351413   0.500000000
N        0.095217784   0.476221716   0.500000000
N        0.095203200   0.619044560   0.500000000
N        0.095257011   0.761922683   0.500000000
N        0.095248926   0.904751380   0.500000000
N        0.238106102   0.047591932   0.500000000
N        0.238006450   0.190382499   0.500000000
N        0.237735646   0.332763466   0.500000000
N        0.237718823   0.476346785   0.500000000
N        0.237975450   0.619136825   0.500000000
N        0.238094204   0.761905818   0.500000000
N        0.238077188   0.904743032   0.500000000
N        0.380984920   0.047660390   0.500000000
N        0.381071937   0.190446354   0.500000000
N        0.381017168   0.332435307   0.500000000
C1       0.384266506   0.477216247   0.500000000
N        0.379992758   0.620007270   0.500000000
N        0.380863397   0.762024925   0.500000000
N        0.380955663   0.904796705   0.500000000
N        0.523811076   0.047648591   0.500000000
N        0.523854700   0.190599659   0.500000000
N        0.523891879   0.333739160   0.500000000
N        0.522446358   0.477553305   0.500000000
C3       0.522783405   0.615733165   0.500000000
N        0.523653464   0.762281950   0.500000000
N        0.523778422   0.904782399   0.500000000
N        0.666647116   0.047647740   0.500000000
N        0.666639244   0.190531061   0.500000000
N        0.666545740   0.333454172   0.500000000
N        0.666260618   0.476107753   0.500000000
N        0.667564706   0.618982510   0.500000000
N        0.667236494   0.762265015   0.500000000
N        0.666648811   0.904755607   0.500000000
N        0.809506473   0.047605450   0.500000000
N        0.809504529   0.190494085   0.500000000
N        0.809468537   0.333360625   0.500000000
N        0.809400369   0.476145238   0.500000000
N        0.809553911   0.618928056   0.500000000
N        0.809617838   0.761993528   0.500000000
N        0.809585621   0.904792346   0.500000000
N        0.952380553   0.047619759   0.500000000
N        0.952394395   0.190492609   0.500000000
N        0.952352417   0.333353425   0.500000000
N        0.952351414   0.476189261   0.500000000
N        0.952339673   0.619015135   0.500000000
N        0.952408063   0.761893778   0.500000000
N        0.952377136   0.904744873   0.500000000



     Writing output data file C2Cn.save/
     NEW-OLD atomic charge density approx. for the potential
     NEW k-points:
   0.0000000   0.0000000   0.0000000   1.0000000
   0.0000000   0.0000000   0.0000000   1.0000000

     Check: negative core charge=   -0.000006

     negative rho (up, down):  4.843E-01 2.205E-03
     extrapolated charge  391.42343, renormalised to  391.00000

     total cpu time spent up to now is      545.9 secs

     Self-consistent Calculation

     iteration #  1     ecut=    40.00 Ry     beta= 0.70
     CG style diagonalization
     c_bands:  1 eigenvalues not converged
     c_bands:  2 eigenvalues not converged
     ethr =  1.00E-06,  avg # of iterations = 21.0

     negative rho (up, down):  2.762E-01 2.192E-01

     total cpu time spent up to now is      767.1 secs

     total energy              =   -1940.05155354 Ry
     Harris-Foulkes estimate   =   -1928.98736969 Ry
     estimated scf accuracy    <       0.15336079 Ry

     total magnetization       =     1.00 Bohr mag/cell
     absolute magnetization    =     3.19 Bohr mag/cell

     iteration #  2     ecut=    40.00 Ry     beta= 0.70
     CG style diagonalization
     c_bands:  3 eigenvalues not converged
     c_bands:  2 eigenvalues not converged
     ethr =  3.92E-05,  avg # of iterations =  4.8

     negative rho (up, down):  3.003E-01 1.956E-01

     total cpu time spent up to now is      811.6 secs

     total energy              =   -1939.94328592 Ry
     Harris-Foulkes estimate   =   -1940.43454011 Ry
     estimated scf accuracy    <       2.09545471 Ry

     total magnetization       =     1.00 Bohr mag/cell
     absolute magnetization    =     3.10 Bohr mag/cell

     iteration #  3     ecut=    40.00 Ry     beta= 0.70
     CG style diagonalization
     ethr =  3.92E-05,  avg # of iterations =  4.2

     negative rho (up, down):  3.472E-01 1.477E-01

     total cpu time spent up to now is      848.6 secs

     total energy              =   -1940.15963393 Ry
     Harris-Foulkes estimate   =   -1940.18325283 Ry
     estimated scf accuracy    <       0.06133601 Ry

     total magnetization       =     1.00 Bohr mag/cell
     absolute magnetization    =     2.30 Bohr mag/cell

     iteration #  4     ecut=    40.00 Ry     beta= 0.70
     CG style diagonalization
     ethr =  1.57E-05,  avg # of iterations =  3.6

     negative rho (up, down):  3.838E-01 1.086E-01

     total cpu time spent up to now is      879.3 secs

     total energy              =   -1940.16428669 Ry
     Harris-Foulkes estimate   =   -1940.16688077 Ry
     estimated scf accuracy    <       0.01224806 Ry

     total magnetization       =     1.00 Bohr mag/cell
     absolute magnetization    =     2.31 Bohr mag/cell

     iteration #  5     ecut=    40.00 Ry     beta= 0.70
     CG style diagonalization
     c_bands:  1 eigenvalues not converged
     ethr =  3.13E-06,  avg # of iterations =  3.7

     negative rho (up, down):  4.104E-01 7.943E-02

     total cpu time spent up to now is      911.1 secs

     total energy              =   -1940.16397890 Ry
     Harris-Foulkes estimate   =   -1940.16585924 Ry
     estimated scf accuracy    <       0.00996192 Ry

     total magnetization       =     1.00 Bohr mag/cell
     absolute magnetization    =     2.33 Bohr mag/cell

     iteration #  6     ecut=    40.00 Ry     beta= 0.70
     CG style diagonalization
     c_bands:  1 eigenvalues not converged
     ethr =  2.55E-06,  avg # of iterations =  3.3

     negative rho (up, down):  4.396E-01 4.779E-02

     total cpu time spent up to now is      938.2 secs

     total energy              =   -1940.16390455 Ry
     Harris-Foulkes estimate   =   -1940.16481661 Ry
     estimated scf accuracy    <       0.00441882 Ry

     total magnetization       =     1.00 Bohr mag/cell
     absolute magnetization    =     2.34 Bohr mag/cell

     iteration #  7     ecut=    40.00 Ry     beta= 0.70
     CG style diagonalization
     c_bands:  1 eigenvalues not converged
     ethr =  1.13E-06,  avg # of iterations =  3.3

     negative rho (up, down):  4.735E-01 1.257E-02

     total cpu time spent up to now is      965.4 secs

     total energy              =   -1940.16380483 Ry
     Harris-Foulkes estimate   =   -1940.16420047 Ry
     estimated scf accuracy    <       0.00138590 Ry

     total magnetization       =     1.00 Bohr mag/cell
     absolute magnetization    =     2.36 Bohr mag/cell

     iteration #  8     ecut=    40.00 Ry     beta= 0.70
     CG style diagonalization
     c_bands:  1 eigenvalues not converged
     ethr =  3.54E-07,  avg # of iterations =  3.5

     negative rho (up, down):  4.791E-01 8.594E-03

     total cpu time spent up to now is      996.3 secs

     total energy              =   -1940.16391993 Ry
     Harris-Foulkes estimate   =   -1940.16397634 Ry
     estimated scf accuracy    <       0.00024610 Ry

     total magnetization       =     1.00 Bohr mag/cell
     absolute magnetization    =     2.39 Bohr mag/cell

     iteration #  9     ecut=    40.00 Ry     beta= 0.70
     CG style diagonalization
     ethr =  6.29E-08,  avg # of iterations =  3.2

     negative rho (up, down):  4.794E-01 8.529E-03

     total cpu time spent up to now is     1023.1 secs

     total energy              =   -1940.16393364 Ry
     Harris-Foulkes estimate   =   -1940.16395455 Ry
     estimated scf accuracy    <       0.00007101 Ry

     total magnetization       =     1.00 Bohr mag/cell
     absolute magnetization    =     2.40 Bohr mag/cell

     iteration # 10     ecut=    40.00 Ry     beta= 0.70
     CG style diagonalization
     ethr =  1.82E-08,  avg # of iterations =  3.3

     negative rho (up, down):  4.802E-01 8.422E-03

     total cpu time spent up to now is     1050.9 secs

     total energy              =   -1940.16394168 Ry
     Harris-Foulkes estimate   =   -1940.16394535 Ry
     estimated scf accuracy    <       0.00001321 Ry

     total magnetization       =     1.00 Bohr mag/cell
     absolute magnetization    =     2.40 Bohr mag/cell

     iteration # 11     ecut=    40.00 Ry     beta= 0.70
     CG style diagonalization
     ethr =  3.38E-09,  avg # of iterations =  3.4

     negative rho (up, down):  4.802E-01 8.442E-03

     total cpu time spent up to now is     1079.4 secs

     total energy              =   -1940.16394373 Ry
     Harris-Foulkes estimate   =   -1940.16394423 Ry
     estimated scf accuracy    <       0.00000186 Ry

     total magnetization       =     1.00 Bohr mag/cell
     absolute magnetization    =     2.40 Bohr mag/cell

     iteration # 12     ecut=    40.00 Ry     beta= 0.70
     CG style diagonalization
     ethr =  4.77E-10,  avg # of iterations =  3.9

     negative rho (up, down):  4.802E-01 8.443E-03
 
     Magnetic moment per site:
     atom:    1    charge:    0.8807    magn:   -0.0002    constr:    0.0000
     atom:    2    charge:    0.8813    magn:   -0.0008    constr:    0.0000
     atom:    3    charge:    0.8803    magn:   -0.0005    constr:    0.0000
     atom:    4    charge:    0.8799    magn:    0.0002    constr:    0.0000
     atom:    5    charge:    0.8804    magn:   -0.0011    constr:    0.0000
     atom:    6    charge:    0.8815    magn:    0.0002    constr:    0.0000
     atom:    7    charge:    0.8804    magn:   -0.0011    constr:    0.0000
     atom:    8    charge:    0.8826    magn:   -0.0010    constr:    0.0000
     atom:    9    charge:    0.8864    magn:   -0.0013    constr:    0.0000
     atom:   10    charge:    0.8802    magn:   -0.0046    constr:    0.0000
     atom:   11    charge:    0.8850    magn:   -0.0002    constr:    0.0000
     atom:   12    charge:    0.8827    magn:   -0.0016    constr:    0.0000
     atom:   13    charge:    0.8822    magn:    0.0003    constr:    0.0000
     atom:   14    charge:    0.8815    magn:    0.0002    constr:    0.0000
     atom:   15    charge:    0.8827    magn:   -0.0005    constr:    0.0000
     atom:   16    charge:    0.8900    magn:   -0.0070    constr:    0.0000
     atom:   17    charge:    0.9060    magn:   -0.0143    constr:    0.0000
     atom:   18    charge:    0.8955    magn:   -0.0104    constr:    0.0000
     atom:   19    charge:    0.9017    magn:   -0.0110    constr:    0.0000
     atom:   20    charge:    0.8827    magn:   -0.0016    constr:    0.0000
     atom:   21    charge:    0.8804    magn:   -0.0011    constr:    0.0000
     atom:   22    charge:    0.8801    magn:    0.0000    constr:    0.0000
     atom:   23    charge:    0.8804    magn:   -0.0005    constr:    0.0000
     atom:   24    charge:    0.8775    magn:   -0.0094    constr:    0.0000
     atom:   25    charge:    1.7910    magn:   -0.1487    constr:    0.0000
     atom:   26    charge:    0.8954    magn:   -0.0104    constr:    0.0000
     atom:   27    charge:    0.8850    magn:   -0.0002    constr:    0.0000
     atom:   28    charge:    0.8799    magn:    0.0002    constr:    0.0000
     atom:   29    charge:    0.8807    magn:   -0.0010    constr:    0.0000
     atom:   30    charge:    0.8816    magn:   -0.0000    constr:    0.0000
     atom:   31    charge:    0.8848    magn:   -0.0027    constr:    0.0000
     atom:   32    charge:    0.8775    magn:   -0.0094    constr:    0.0000
     atom:   33    charge:    0.9059    magn:   -0.0143    constr:    0.0000
     atom:   34    charge:    0.8802    magn:   -0.0046    constr:    0.0000
     atom:   35    charge:    0.8803    magn:   -0.0005    constr:    0.0000
     atom:   36    charge:    0.8818    magn:    0.0004    constr:    0.0000
     atom:   37    charge:    0.8814    magn:    0.0004    constr:    0.0000
     atom:   38    charge:    0.8816    magn:   -0.0000    constr:    0.0000
     atom:   39    charge:    0.8804    magn:   -0.0005    constr:    0.0000
     atom:   40    charge:    0.8900    magn:   -0.0070    constr:    0.0000
     atom:   41    charge:    0.8864    magn:   -0.0013    constr:    0.0000
     atom:   42    charge:    0.8813    magn:   -0.0008    constr:    0.0000
     atom:   43    charge:    0.8820    magn:   -0.0013    constr:    0.0000
     atom:   44    charge:    0.8818    magn:    0.0004    constr:    0.0000
     atom:   45    charge:    0.8807    magn:   -0.0010    constr:    0.0000
     atom:   46    charge:    0.8801    magn:    0.0000    constr:    0.0000
     atom:   47    charge:    0.8827    magn:   -0.0005    constr:    0.0000
     atom:   48    charge:    0.8826    magn:   -0.0010    constr:    0.0000
     atom:   49    charge:    0.8807    magn:   -0.0002    constr:    0.0000
     atom:   50    charge:    2.8704    magn:    0.0015    constr:    0.0000
     atom:   51    charge:    2.8736    magn:    0.0005    constr:    0.0000
     atom:   52    charge:    2.8715    magn:    0.0094    constr:    0.0000
     atom:   53    charge:    2.8699    magn:    0.0035    constr:    0.0000
     atom:   54    charge:    2.8707    magn:    0.0006    constr:    0.0000
     atom:   55    charge:    2.8735    magn:   -0.0003    constr:    0.0000
     atom:   56    charge:    2.8725    magn:   -0.0004    constr:    0.0000
     atom:   57    charge:    2.8695    magn:   -0.0023    constr:    0.0000
     atom:   58    charge:    2.8666    magn:    0.0066    constr:    0.0000
     atom:   59    charge:    2.8754    magn:    0.0329    constr:    0.0000
     atom:   60    charge:    2.8785    magn:    0.0154    constr:    0.0000
     atom:   61    charge:    2.8671    magn:    0.0110    constr:    0.0000
     atom:   62    charge:    2.8703    magn:    0.0031    constr:    0.0000
     atom:   63    charge:    2.8735    magn:   -0.0003    constr:    0.0000
     atom:   64    charge:    2.8687    magn:    0.0009    constr:    0.0000
     atom:   65    charge:    2.8696    magn:    0.0054    constr:    0.0000
     atom:   66    charge:    2.8794    magn:    0.0088    constr:    0.0000
     atom:   67    charge:    1.7679    magn:    0.1710    constr:    0.0000
     atom:   68    charge:    2.8716    magn:    0.0546    constr:    0.0000
     atom:   69    charge:    2.8671    magn:    0.0110    constr:    0.0000
     atom:   70    charge:    2.8706    magn:    0.0006    constr:    0.0000
     atom:   71    charge:    2.8715    magn:    0.0002    constr:    0.0000
     atom:   72    charge:    2.8703    magn:    0.0002    constr:    0.0000
     atom:   73    charge:    2.8652    magn:    0.0171    constr:    0.0000
     atom:   74    charge:    2.8215    magn:    0.1324    constr:    0.0000
     atom:   75    charge:    1.7679    magn:    0.1710    constr:    0.0000
     atom:   76    charge:    2.8785    magn:    0.0154    constr:    0.0000
     atom:   77    charge:    2.8699    magn:    0.0035    constr:    0.0000
     atom:   78    charge:    2.8687    magn:    0.0006    constr:    0.0000
     atom:   79    charge:    2.8704    magn:    0.0006    constr:    0.0000
     atom:   80    charge:    2.8744    magn:    0.0085    constr:    0.0000
     atom:   81    charge:    2.8652    magn:    0.0171    constr:    0.0000
     atom:   82    charge:    2.8794    magn:    0.0088    constr:    0.0000
     atom:   83    charge:    2.8754    magn:    0.0329    constr:    0.0000
     atom:   84    charge:    2.8715    magn:    0.0094    constr:    0.0000
     atom:   85    charge:    2.8692    magn:    0.0014    constr:    0.0000
     atom:   86    charge:    2.8699    magn:   -0.0001    constr:    0.0000
     atom:   87    charge:    2.8704    magn:    0.0006    constr:    0.0000
     atom:   88    charge:    2.8703    magn:    0.0002    constr:    0.0000
     atom:   89    charge:    2.8696    magn:    0.0054    constr:    0.0000
     atom:   90    charge:    2.8666    magn:    0.0066    constr:    0.0000
     atom:   91    charge:    2.8736    magn:    0.0005    constr:    0.0000
     atom:   92    charge:    2.8707    magn:    0.0004    constr:    0.0000
     atom:   93    charge:    2.8692    magn:    0.0014    constr:    0.0000
     atom:   94    charge:    2.8687    magn:    0.0006    constr:    0.0000
     atom:   95    charge:    2.8715    magn:    0.0002    constr:    0.0000
     atom:   96    charge:    2.8687    magn:    0.0009    constr:    0.0000
     atom:   97    charge:    2.8695    magn:   -0.0023    constr:    0.0000
     atom:   98    charge:    2.8704    magn:    0.0015    constr:    0.0000

     total cpu time spent up to now is     1112.9 secs

     End of self-consistent calculation

 ------ SPIN UP ------------


          k = 0.0000 0.0000 0.0000 ( 77079 PWs)   bands (ev):

   -21.9913 -21.6624 -21.3825 -21.3789 -21.3440 -21.3239 -21.3032 -20.9363
   -20.6560 -20.6476 -20.6321 -20.5529 -20.5497 -20.4163 -20.2998 -20.2939
   -20.2922 -20.1560 -20.1538 -19.6330 -19.4329 -19.4083 -19.4005 -19.3761
   -19.3684 -19.3679 -19.3552 -19.3411 -19.3389 -19.1673 -19.1580 -19.0497
   -18.9752 -18.9738 -18.9570 -18.7917 -18.7773 -18.5578 -18.5451 -18.5402
   -18.5117 -18.4418 -18.4348 -18.3872 -18.3647 -18.3310 -18.3288 -17.0306
   -15.1061 -13.2286 -12.7861 -12.7742 -12.7453 -12.7096 -12.7025 -12.6364
   -12.5593 -12.5370 -12.5123 -12.4932 -12.4192 -12.1503 -12.0720 -12.0657
   -12.0328 -11.9952 -11.9556 -11.5772 -11.4260 -11.4258 -11.3896 -11.3872
   -11.3559 -11.3500 -11.3482 -11.3311 -11.3041 -11.1241 -11.0394 -10.8722
   -10.7108 -10.7000 -10.6780 -10.6703 -10.5147 -10.0966 -10.0454 -10.0083
    -9.9239  -9.8907  -9.8162  -9.4375  -9.3604  -9.3232  -9.3023  -9.2902
    -9.2720  -9.2014  -9.0695  -8.9969  -8.9375  -8.9188  -8.8930  -8.8858
    -8.8846  -8.8775  -8.8542  -8.8404  -8.8324  -8.8185  -8.8165  -8.8153
    -8.8128  -8.8126  -8.7791  -8.7695  -8.7659  -8.7399  -8.6709  -8.6508
    -8.4855  -8.4742  -8.1850  -8.1820  -8.1640  -8.1264  -8.1001  -8.0150
    -7.8944  -7.8258  -7.8205  -7.8014  -7.7375  -7.7312  -7.6023  -7.5221
    -7.5187  -7.4617  -7.4585  -7.4379  -7.4207  -7.3924  -7.3874  -7.3592
    -7.3440  -7.3416  -7.3362  -7.2865  -7.2463  -7.2283  -7.2223  -7.0228
    -7.0131  -6.9820  -6.9424  -6.8395  -6.6411  -6.5377  -6.3182  -6.2138
    -6.1708  -6.1425  -6.1059  -6.0919  -6.0747  -6.0668  -6.0503  -6.0390
    -6.0367  -6.0212  -6.0146  -6.0053  -5.8970  -5.8010  -5.7787  -5.6686
    -5.5471  -5.4530  -5.4441  -5.4353  -5.3706  -5.2693  -5.0684  -5.0391
    -4.8068  -4.8000  -4.7821  -4.7511  -4.7007  -4.6524  -4.5767  -4.5164
    -4.4885  -4.4863  -4.4803  -3.6284   0.1881   0.3126   0.7022   0.7165
     0.7175   0.7453   0.7547   0.7594   0.7897   0.8108   0.8196   0.8266
     0.8269   0.8472   0.8608   0.8750   0.9130   0.9191   0.9231   0.9540
     1.0209   1.1772   1.2187   1.2654   1.2772   1.3048   1.3206   1.3227
     1.3310   1.3368   1.3514   1.3623   1.4090   1.4353   1.4405   1.4441
     1.4519   1.4569   1.4796   1.8868   2.1081   2.1103   2.1207   2.1267
     2.1354   2.1467   2.1542   2.2116   2.2663

 ------ SPIN DOWN ----------


          k = 0.0000 0.0000 0.0000 ( 77079 PWs)   bands (ev):

   -21.9082 -21.6430 -21.3765 -21.3760 -21.3411 -21.3114 -21.2842 -20.9100
   -20.6475 -20.6340 -20.6252 -20.5456 -20.5390 -20.4102 -20.2922 -20.2848
   -20.2713 -20.1427 -20.1369 -19.6100 -19.4147 -19.3970 -19.3882 -19.3699
   -19.3630 -19.3605 -19.3470 -19.3314 -19.3196 -19.1532 -19.1473 -19.0347
   -18.9682 -18.9667 -18.9410 -18.7762 -18.7565 -18.5426 -18.5332 -18.5235
   -18.4991 -18.4343 -18.4204 -18.3794 -18.3547 -18.3262 -18.3194 -16.7928
   -14.7534 -13.2157 -12.7829 -12.7736 -12.7446 -12.7078 -12.7025 -12.6373
   -12.5575 -12.5337 -12.5113 -12.4808 -12.4185 -12.1444 -12.0715 -12.0600
   -12.0254 -11.9857 -11.9490 -11.5709 -11.4230 -11.4187 -11.3865 -11.3852
   -11.3534 -11.3485 -11.3474 -11.3230 -11.2935 -11.0753 -11.0222 -10.8759
[...]
     atom:   55    charge:    2.6404    magn:   -0.0001    constr:    0.0000
     atom:   56    charge:    2.6440    magn:   -0.0003    constr:    0.0000
     atom:   57    charge:    2.6458    magn:   -0.0018    constr:    0.0000
     atom:   58    charge:    2.6454    magn:    0.0060    constr:    0.0000
     atom:   59    charge:    2.6362    magn:    0.0307    constr:    0.0000
     atom:   60    charge:    2.6380    magn:    0.0147    constr:    0.0000
     atom:   61    charge:    2.6448    magn:    0.0100    constr:    0.0000
     atom:   62    charge:    2.6397    magn:    0.0025    constr:    0.0000
     atom:   63    charge:    2.6404    magn:   -0.0001    constr:    0.0000
     atom:   64    charge:    2.6484    magn:    0.0009    constr:    0.0000
     atom:   65    charge:    2.6477    magn:    0.0038    constr:    0.0000
     atom:   66    charge:    2.6476    magn:    0.0076    constr:    0.0000
     atom:   67    charge:    1.7566    magn:    0.1742    constr:    0.0000
     atom:   68    charge:    2.6362    magn:    0.0535    constr:    0.0000
     atom:   69    charge:    2.6448    magn:    0.0100    constr:    0.0000
     atom:   70    charge:    2.6497    magn:    0.0007    constr:    0.0000
     atom:   71    charge:    2.6486    magn:    0.0003    constr:    0.0000
     atom:   72    charge:    2.6436    magn:    0.0003    constr:    0.0000
     atom:   73    charge:    2.6379    magn:    0.0154    constr:    0.0000
     atom:   74    charge:    2.6068    magn:    0.1183    constr:    0.0000
     atom:   75    charge:    1.7566    magn:    0.1742    constr:    0.0000
     atom:   76    charge:    2.6380    magn:    0.0147    constr:    0.0000
     atom:   77    charge:    2.6480    magn:    0.0029    constr:    0.0000
     atom:   78    charge:    2.6462    magn:    0.0006    constr:    0.0000
     atom:   79    charge:    2.6431    magn:    0.0005    constr:    0.0000
     atom:   80    charge:    2.6345    magn:    0.0068    constr:    0.0000
     atom:   81    charge:    2.6379    magn:    0.0154    constr:    0.0000
     atom:   82    charge:    2.6476    magn:    0.0076    constr:    0.0000
     atom:   83    charge:    2.6362    magn:    0.0307    constr:    0.0000
     atom:   84    charge:    2.6366    magn:    0.0085    constr:    0.0000
     atom:   85    charge:    2.6453    magn:    0.0012    constr:    0.0000
     atom:   86    charge:    2.6441    magn:   -0.0001    constr:    0.0000
     atom:   87    charge:    2.6431    magn:    0.0005    constr:    0.0000
     atom:   88    charge:    2.6436    magn:    0.0003    constr:    0.0000
     atom:   89    charge:    2.6477    magn:    0.0038    constr:    0.0000
     atom:   90    charge:    2.6454    magn:    0.0060    constr:    0.0000
     atom:   91    charge:    2.6494    magn:    0.0005    constr:    0.0000
     atom:   92    charge:    2.6493    magn:    0.0003    constr:    0.0000
     atom:   93    charge:    2.6453    magn:    0.0012    constr:    0.0000
     atom:   94    charge:    2.6462    magn:    0.0006    constr:    0.0000
     atom:   95    charge:    2.6486    magn:    0.0003    constr:    0.0000
     atom:   96    charge:    2.6484    magn:    0.0009    constr:    0.0000
     atom:   97    charge:    2.6458    magn:   -0.0018    constr:    0.0000
     atom:   98    charge:    2.6488    magn:    0.0013    constr:    0.0000

     total cpu time spent up to now is     5158.0 secs

     End of self-consistent calculation

 ------ SPIN UP ------------


          k = 0.0000 0.0000 0.0000 ( 77463 PWs)   bands (ev):

   -21.9129 -21.6555 -21.3931 -21.3852 -21.3570 -21.2990 -21.2835 -20.8963
   -20.6620 -20.6438 -20.6203 -20.5449 -20.5391 -20.4228 -20.2903 -20.2872
   -20.2695 -20.1292 -20.1142 -19.6018 -19.4262 -19.4055 -19.3902 -19.3879
   -19.3804 -19.3667 -19.3616 -19.3177 -19.3120 -19.1681 -19.1597 -19.0373
   -18.9681 -18.9652 -18.9374 -18.7756 -18.7652 -18.5553 -18.5410 -18.5231
   -18.5225 -18.4658 -18.4199 -18.3918 -18.3579 -18.3393 -18.3288 -16.8700
   -15.0386 -13.1837 -12.7777 -12.7766 -12.7430 -12.7132 -12.7076 -12.6415
   -12.5599 -12.5214 -12.5147 -12.4881 -12.4060 -12.1537 -12.0609 -12.0528
   -12.0218 -11.9930 -11.9399 -11.5708 -11.4287 -11.4118 -11.3921 -11.3876
   -11.3614 -11.3567 -11.3527 -11.3120 -11.3011 -11.1074 -11.0432 -10.8715
   -10.7178 -10.7021 -10.6742 -10.6500 -10.4988 -10.0815 -10.0304 -10.0100
    -9.9353  -9.8850  -9.8164  -9.4119  -9.3394  -9.3257  -9.3098  -9.2910
    -9.2739  -9.2182  -9.0718  -8.9630  -8.9630  -8.9123  -8.9072  -8.8950
    -8.8921  -8.8849  -8.8830  -8.8571  -8.8264  -8.8227  -8.8168  -8.8167
    -8.7939  -8.7930  -8.7901  -8.7458  -8.7343  -8.7021  -8.6568  -8.6431
    -8.4649  -8.4575  -8.2151  -8.1878  -8.1843  -8.1051  -8.0844  -7.9824
    -7.8748  -7.8325  -7.8186  -7.7929  -7.7220  -7.7216  -7.5813  -7.5184
    -7.5019  -7.4695  -7.4603  -7.4436  -7.4272  -7.3913  -7.3905  -7.3371
    -7.3370  -7.3358  -7.3223  -7.2816  -7.2315  -7.2306  -7.2014  -7.0381
    -7.0358  -6.9935  -6.9075  -6.8231  -6.6546  -6.5532  -6.2942  -6.2000
    -6.1863  -6.1461  -6.0984  -6.0772  -6.0748  -6.0633  -6.0586  -6.0551
    -6.0350  -6.0308  -6.0088  -5.9854  -5.8867  -5.8311  -5.8078  -5.7185
    -5.5414  -5.4496  -5.4380  -5.4340  -5.3517  -5.2739  -5.1605  -5.1089
    -4.8069  -4.8040  -4.7763  -4.7596  -4.6957  -4.6750  -4.5784  -4.5161
    -4.4950  -4.4946  -4.4599  -3.6454   0.1846   0.2798   0.6829   0.7025
     0.7137   0.7289   0.7387   0.7423   0.7890   0.8071   0.8082   0.8109
     0.8185   0.8400   0.8539   0.8619   0.8912   0.9152   0.9283   0.9464
     0.9992   1.1500   1.2140   1.2497   1.2648   1.2947   1.3038   1.3185
     1.3252   1.3313   1.3477   1.3633   1.4098   1.4353   1.4385   1.4422
     1.4517   1.4601   1.4840   1.8881   2.1002   2.1039   2.1149   2.1205
     2.2739   2.3101   2.3320   2.3383   2.3886

 ------ SPIN DOWN ----------


          k = 0.0000 0.0000 0.0000 ( 77463 PWs)   bands (ev):

   -21.8479 -21.6307 -21.3905 -21.3813 -21.3540 -21.2877 -21.2634 -20.8720
   -20.6539 -20.6326 -20.6142 -20.5384 -20.5299 -20.4163 -20.2828 -20.2779
   -20.2500 -20.1074 -20.1010 -19.5777 -19.4154 -19.3983 -19.3855 -19.3811
   -19.3717 -19.3613 -19.3474 -19.3014 -19.2973 -19.1535 -19.1482 -19.0269
   -18.9595 -18.9578 -18.9159 -18.7607 -18.7474 -18.5423 -18.5314 -18.5099
   -18.5075 -18.4576 -18.4001 -18.3842 -18.3474 -18.3315 -18.3098 -16.6367
   -14.6802 -13.1769 -12.7762 -12.7746 -12.7420 -12.7121 -12.7075 -12.6419
   -12.5582 -12.5204 -12.5120 -12.4734 -12.4049 -12.1492 -12.0604 -12.0490
   -12.0149 -11.9828 -11.9332 -11.5640 -11.4213 -11.4105 -11.3904 -11.3845
   -11.3602 -11.3547 -11.3491 -11.3034 -11.2907 -11.0594 -11.0267 -10.8756
   -10.7170 -10.7021 -10.6692 -10.6442 -10.4953 -10.0752 -10.0275 -10.0017
    -9.9239  -9.8622  -9.8012  -9.4076  -9.3187  -9.3140  -9.3051  -9.2852
    -9.2722  -9.2137  -9.0665  -8.9497  -8.9087  -8.9062  -8.9035  -8.8913
    -8.8911  -8.8825  -8.8785  -8.8546  -8.8241  -8.8164  -8.8155  -8.8098
    -8.7926  -8.7880  -8.7861  -8.7252  -8.7147  -8.6427  -8.6364  -8.6316
    -8.4554  -8.4217  -8.2131  -8.1846  -8.1820  -8.0860  -8.0746  -7.9268
    -7.8564  -7.8209  -7.8014  -7.7855  -7.7035  -7.6873  -7.5741  -7.5089
    -7.4996  -7.4680  -7.4426  -7.4375  -7.4269  -7.3886  -7.3877  -7.3326
    -7.3269  -7.3205  -7.2919  -7.2683  -7.2154  -7.1683  -7.1646  -7.0337
    -7.0173  -6.9914  -6.8818  -6.7946  -6.6281  -6.5245  -6.2483  -6.1955
    -6.1753  -6.1431  -6.0812  -6.0658  -6.0560  -6.0494  -6.0445  -6.0418
    -6.0246  -6.0116  -5.9678  -5.9643  -5.8079  -5.8045  -5.7678  -5.6886
    -5.5178  -5.4377  -5.4256  -5.3998  -5.2544  -5.2022  -5.0832  -5.0216
    -4.7758  -4.7687  -4.7486  -4.7331  -4.6534  -4.6280  -4.5523  -4.4960
    -4.4830  -4.4725  -4.0644  -2.8326   0.0011   0.1772   0.6717   0.6792
     0.7067   0.7255   0.7333   0.7388   0.7843   0.7930   0.8055   0.8091
     0.8158   0.8340   0.8441   0.8516   0.8788   0.9021   0.9162   0.9500
     0.9669   1.1343   1.2260   1.2307   1.2539   1.2724   1.3148   1.3226
     1.3286   1.3339   1.3422   1.3635   1.3867   1.4352   1.4390   1.4424
     1.4513   1.4594   1.4813   1.8832   2.0912   2.0969   2.1039   2.1359
     2.2692   2.3050   2.3293   2.3388   2.3889

     highest occupied, lowest unoccupied level (ev):    -3.6454   -4.0644

!    total energy              =   -1940.17803417 Ry
     Harris-Foulkes estimate   =   -1940.17803419 Ry
     estimated scf accuracy    <          4.4E-09 Ry

     total all-electron energy =     -7770.002511 Ry

     The total energy is the sum of the following terms:

     one-electron contribution =  -10644.68489223 Ry
     hartree contribution      =    5407.93637885 Ry
     xc contribution           =    -430.68647318 Ry
     ewald contribution        =    4370.70447572 Ry
     DFT-D3 Dispersion         =      -0.27014434 Ry
     one-center paw contrib.   =    -643.17737899 Ry

     total magnetization       =     1.00 Bohr mag/cell
     absolute magnetization    =     2.39 Bohr mag/cell

     convergence has been achieved in  17 iterations

     negative rho (up, down):  4.795E-01 7.846E-03

     Forces acting on atoms (cartesian axes, Ry/au):

     atom    1 type  1   force =    -0.00011737   -0.00033164    0.00000000
     atom    2 type  1   force =    -0.00032512   -0.00022690    0.00000000
     atom    3 type  1   force =    -0.00035523    0.00001162    0.00000000
     atom    4 type  1   force =    -0.00010154    0.00007043    0.00000000
     atom    5 type  1   force =     0.00036685   -0.00050743    0.00000000
     atom    6 type  1   force =     0.00017342   -0.00006952    0.00000000
     atom    7 type  1   force =    -0.00029325    0.00016771    0.00000000
     atom    8 type  1   force =    -0.00021973    0.00036905    0.00000000
     atom    9 type  1   force =    -0.00000580    0.00011384    0.00000000
     atom   10 type  1   force =    -0.00022308   -0.00021421    0.00000000
     atom   11 type  1   force =    -0.00014198   -0.00029569    0.00000000
     atom   12 type  1   force =     0.00057441   -0.00022716    0.00000000
     atom   13 type  1   force =     0.00049407   -0.00028756    0.00000000
     atom   14 type  1   force =     0.00014502   -0.00011791    0.00000000
     atom   15 type  1   force =     0.00002532    0.00009425    0.00000000
     atom   16 type  1   force =    -0.00015178    0.00006954    0.00000000
     atom   17 type  1   force =     0.00000516   -0.00031893    0.00000000
     atom   18 type  1   force =    -0.00015120   -0.00028445    0.00000000
     atom   19 type  1   force =     0.00006358   -0.00003735    0.00000000
     atom   20 type  1   force =     0.00048362   -0.00038758    0.00000000
     atom   21 type  1   force =     0.00062177   -0.00006630    0.00000000
     atom   22 type  1   force =     0.00036314   -0.00028831    0.00000000
     atom   23 type  1   force =    -0.00014190    0.00033927    0.00000000
     atom   24 type  1   force =    -0.00017960    0.00005500    0.00000000
     atom   25 type  4   force =     0.00021215   -0.00012262    0.00000000
     atom   26 type  1   force =     0.00017055    0.00027313    0.00000000
     atom   27 type  1   force =     0.00018592    0.00026809    0.00000000
     atom   28 type  1   force =    -0.00011115    0.00005017    0.00000000
     atom   29 type  1   force =     0.00000137    0.00012275    0.00000000
     atom   30 type  1   force =    -0.00002152   -0.00007434    0.00000000
     atom   31 type  1   force =    -0.00023568    0.00013628    0.00000000
     atom   32 type  1   force =    -0.00013733    0.00012743    0.00000000
     atom   33 type  1   force =     0.00027851    0.00015518    0.00000000
     atom   34 type  1   force =     0.00007426    0.00029880    0.00000000
     atom   35 type  1   force =    -0.00018631    0.00030056    0.00000000
     atom   36 type  1   force =    -0.00016892    0.00017771    0.00000000
     atom   37 type  1   force =     0.00000019    0.00000221    0.00000000
     atom   38 type  1   force =     0.00005564    0.00005780    0.00000000
     atom   39 type  1   force =    -0.00036248   -0.00004637    0.00000000
     atom   40 type  1   force =    -0.00013379    0.00009734    0.00000000
     atom   41 type  1   force =    -0.00010067   -0.00005249    0.00000000
     atom   42 type  1   force =     0.00003539    0.00039443    0.00000000
     atom   43 type  1   force =    -0.00006198    0.00003698    0.00000000
     atom   44 type  1   force =    -0.00023740    0.00006035    0.00000000
     atom   45 type  1   force =    -0.00010459   -0.00006008    0.00000000
     atom   46 type  1   force =     0.00043313   -0.00016947    0.00000000
     atom   47 type  1   force =    -0.00006638   -0.00006924    0.00000000
     atom   48 type  1   force =    -0.00042778    0.00000475    0.00000000
     atom   49 type  1   force =     0.00022956    0.00026662    0.00000000
     atom   50 type  2   force =     0.00037623   -0.00000409    0.00000000
     atom   51 type  2   force =     0.00015863   -0.00013331    0.00000000
     atom   52 type  2   force =    -0.00041727   -0.00029238    0.00000000
     atom   53 type  2   force =    -0.00018454    0.00005655    0.00000000
     atom   54 type  2   force =     0.00051990    0.00021304    0.00000000
     atom   55 type  2   force =     0.00015022    0.00002992    0.00000000
     atom   56 type  2   force =     0.00022706   -0.00012914    0.00000000
     atom   57 type  2   force =    -0.00008443   -0.00022056    0.00000000
     atom   58 type  2   force =    -0.00007288   -0.00035848    0.00000000
     atom   59 type  2   force =    -0.00032546   -0.00058168    0.00000000
     atom   60 type  2   force =    -0.00046790   -0.00006349    0.00000000
     atom   61 type  2   force =    -0.00029730   -0.00003488    0.00000000
     atom   62 type  2   force =     0.00016630   -0.00009413    0.00000000
     atom   63 type  2   force =     0.00005115   -0.00014188    0.00000000
     atom   64 type  2   force =    -0.00030082   -0.00016004    0.00000000
     atom   65 type  2   force =    -0.00025541   -0.00032588    0.00000000
     atom   66 type  2   force =     0.00002947   -0.00017634    0.00000000
     atom   67 type  3   force =    -0.00020000   -0.00046960    0.00000000
     atom   68 type  2   force =    -0.00038907    0.00022497    0.00000000
     atom   69 type  2   force =    -0.00011898    0.00027683    0.00000000
     atom   70 type  2   force =     0.00007610   -0.00055307    0.00000000
     atom   71 type  2   force =     0.00007118   -0.00040535    0.00000000
     atom   72 type  2   force =    -0.00037921   -0.00015136    0.00000000
     atom   73 type  2   force =    -0.00027933   -0.00010335    0.00000000
     atom   74 type  2   force =     0.00023512   -0.00013501    0.00000000
     atom   75 type  5   force =     0.00030721    0.00040810    0.00000000
     atom   76 type  2   force =    -0.00017967    0.00043796    0.00000000
     atom   77 type  2   force =    -0.00014256    0.00013443    0.00000000
     atom   78 type  2   force =    -0.00005560   -0.00031367    0.00000000
     atom   79 type  2   force =    -0.00026550    0.00010959    0.00000000
     atom   80 type  2   force =    -0.00016262    0.00009235    0.00000000
     atom   81 type  2   force =    -0.00005130    0.00029405    0.00000000
     atom   82 type  2   force =     0.00016650    0.00006223    0.00000000
     atom   83 type  2   force =     0.00034075    0.00057262    0.00000000
     atom   84 type  2   force =     0.00004295    0.00050915    0.00000000
     atom   85 type  2   force =    -0.00015934   -0.00029660    0.00000000
     atom   86 type  2   force =    -0.00009682    0.00005361    0.00000000
     atom   87 type  2   force =    -0.00023013    0.00017196    0.00000000
     atom   88 type  2   force =    -0.00006171    0.00040264    0.00000000
     atom   89 type  2   force =     0.00015108    0.00038319    0.00000000
     atom   90 type  2   force =     0.00027215    0.00024201    0.00000000
     atom   91 type  2   force =     0.00019348   -0.00006962    0.00000000
     atom   92 type  2   force =     0.00027638   -0.00015963    0.00000000
     atom   93 type  2   force =     0.00017736    0.00028451    0.00000000
     atom   94 type  2   force =     0.00024469    0.00020272    0.00000000
     atom   95 type  2   force =     0.00038705    0.00014019    0.00000000
     atom   96 type  2   force =    -0.00001255    0.00034181    0.00000000
     atom   97 type  2   force =     0.00014840    0.00018526    0.00000000
     atom   98 type  2   force =     0.00019161   -0.00032188    0.00000000

     Total force =     0.003453     Total SCF correction =     0.000107


     Computing stress (Cartesian axis) and pressure


     negative rho (up, down):  4.795E-01 7.846E-03
          total   stress  (Ry/bohr**3)                   (kbar)     P=   -0.12
   0.00000043   0.00000000   0.00000000          0.06      0.00      0.00
   0.00000000   0.00000044   0.00000000          0.00      0.06      0.00
   0.00000000   0.00000000  -0.00000334          0.00      0.00     -0.49


     Writing output data file C2Cn.save/
 
     init_run     :      8.66s CPU      8.92s WALL (       2 calls)
     electrons    :   4927.46s CPU   4975.68s WALL (      10 calls)
     update_pot   :     23.91s CPU     24.03s WALL (       8 calls)
     forces       :     34.14s CPU     35.30s WALL (      10 calls)
     stress       :    115.52s CPU    116.42s WALL (      10 calls)

     Called by init_run:
     wfcinit      :      3.37s CPU      3.51s WALL (       2 calls)
     potinit      :      1.79s CPU      1.81s WALL (       2 calls)
     hinit0       :      2.51s CPU      2.54s WALL (       2 calls)

     Called by electrons:
     c_bands      :   4796.29s CPU   4834.47s WALL (     124 calls)
     sum_band     :     67.41s CPU     70.30s WALL (     124 calls)
     v_of_rho     :     22.10s CPU     22.59s WALL (     131 calls)
     newd         :      8.11s CPU     10.26s WALL (     131 calls)
     PAW_pot      :     24.64s CPU     24.94s WALL (     139 calls)
     mix_rho      :      2.08s CPU      2.26s WALL (     124 calls)

     Called by c_bands:
     init_us_2    :      4.71s CPU      4.79s WALL (     556 calls)
     rcgdiagg     :   4672.98s CPU   4708.34s WALL (     268 calls)
     wfcrot       :    122.56s CPU    125.09s WALL (     246 calls)

     Called by sum_band:
     sum_band:bec :      0.15s CPU      0.15s WALL (     264 calls)
     addusdens    :      7.97s CPU     10.17s WALL (     124 calls)

     Called by *cgdiagg:
     h_psi        :   2353.69s CPU   2372.48s WALL (  208769 calls)
     s_psi        :   1387.26s CPU   1397.64s WALL (  417292 calls)
     rdiaghg      :      3.59s CPU      3.72s WALL (     246 calls)

     Called by h_psi:
     h_psi:pot    :   2351.37s CPU   2370.13s WALL (  208769 calls)
     h_psi:calbec :    852.36s CPU    859.02s WALL (  208769 calls)
     vloc_psi     :    790.12s CPU    798.26s WALL (  208769 calls)
     add_vuspsi   :    706.83s CPU    711.37s WALL (  208769 calls)
     hs_1psi      :   2940.81s CPU   2962.88s WALL (  208523 calls)
     s_1psi       :   1439.06s CPU   1449.35s WALL (  208523 calls)

     General routines
     calbec       :   1602.89s CPU   1616.51s WALL (  417656 calls)
     fft          :     18.46s CPU     18.67s WALL (    2551 calls)
     ffts         :      0.92s CPU      0.93s WALL (     248 calls)
     fftw         :    741.67s CPU    749.31s WALL (  508650 calls)
 
     Parallel routines
     fft_scatt_xy :     74.72s CPU     75.30s WALL (  511449 calls)
     fft_scatt_yz :    225.44s CPU    228.29s WALL (  511449 calls)
 
     PWSCF        :      1h25m CPU      1h26m WALL

 
   This run was terminated on:   0:34:57   8Jun2021            

=------------------------------------------------------------------------------=
   JOB DONE.
=------------------------------------------------------------------------------=
