
     Program PWSCF v.6.4.1 starts on  9Jun2021 at  1:24:36 

     This program is part of the open-source Quantum ESPRESSO suite
     for quantum simulation of materials; please cite
         "P. Giannozzi et al., J. Phys.:Condens. Matter 21 395502 (2009);
         "P. Giannozzi et al., J. Phys.:Condens. Matter 29 465901 (2017);
          URL http://www.quantum-espresso.org", 
     in publications or presentations arising from this work. More details at
     http://www.quantum-espresso.org/quote

     Parallel version (MPI), running on    64 processors

     MPI processes distributed on     2 nodes
     R & G space division:  proc/nbgrp/npool/nimage =      64
     Waiting for input...
     Reading input from standard input

     Current dimensions of program PWSCF are:
     Max number of different atomic species (ntypx) = 10
     Max number of k-points (npk) =  40000
     Max angular momentum in pseudopotentials (lmaxx) =  3
               file N.pbe-n-kjpaw_psl.1.0.0.UPF: wavefunction(s)  2S renormalized
               file C.pbe-n-kjpaw_psl.1.0.0.UPF: wavefunction(s)  2S 2P renormalized
               file C.pbe-n-kjpaw_psl.1.0.0.UPF: wavefunction(s)  2S 2P renormalized
               file C.pbe-n-kjpaw_psl.1.0.0.UPF: wavefunction(s)  2S 2P renormalized

     --------------------------------------------
     Parameters for DFT-D3 Dispersion Correction:
     --------------------------------------------
       Reference C6 values for interpolation: 

         atom   Coordination number   C6
         B          0.000           214.36
         B          0.971           150.74
         B          1.944           106.23
         B          2.913            62.89
         B          4.586            56.06
         C1         0.000            98.23
         C1         0.987            86.49
         C1         1.998            58.72
         C1         2.999            51.56
         C1         3.984            36.41
         C2         0.000            98.23
         C2         0.987            86.49
         C2         1.998            58.72
         C2         2.999            51.56
         C2         3.984            36.41
         C3         0.000            98.23
         C3         0.987            86.49
         C3         1.998            58.72
         C3         2.999            51.56
         C3         3.984            36.41
         N          0.000            50.54
         N          0.994            44.25
         N          2.014            39.35
         N          2.990            31.16

       Values used:

         atom   Coordination number  R0_AB[au]  C6      C8
         B          3.327            3.039     62.90   2506.21
         B          3.317            3.039     62.90   2506.44
         B          3.318            3.039     62.90   2506.43
         B          3.324            3.039     62.90   2506.28
         B          3.325            3.039     62.90   2506.26
         B          3.323            3.039     62.90   2506.30
         B          3.326            3.039     62.90   2506.23
         B          3.324            3.039     62.90   2506.28
         B          3.324            3.039     62.90   2506.27
         B          3.306            3.039     62.91   2506.68
         B          3.319            3.039     62.90   2506.38
         B          3.325            3.039     62.90   2506.26
         B          3.323            3.039     62.90   2506.30
         B          3.323            3.039     62.90   2506.30
         B          3.323            3.039     62.90   2506.29
         B          3.326            3.039     62.90   2506.23
         B          3.293            3.039     62.92   2506.97
         B          3.278            3.039     62.92   2507.32
         B          3.322            3.039     62.90   2506.33
         B          3.325            3.039     62.90   2506.26
         B          3.325            3.039     62.90   2506.26
         B          3.322            3.039     62.90   2506.34
         B          3.317            3.039     62.90   2506.44
         B          3.305            3.039     62.91   2506.71
         C2         3.234            2.750     49.64   1435.72
         B          3.278            3.039     62.92   2507.32
         B          3.319            3.039     62.90   2506.38
         B          3.324            3.039     62.90   2506.28
         B          3.319            3.039     62.90   2506.39
         B          3.316            3.039     62.90   2506.46
         B          3.307            3.039     62.91   2506.67
         B          3.305            3.039     62.91   2506.71
         B          3.293            3.039     62.92   2506.97
         B          3.306            3.039     62.91   2506.68
         B          3.318            3.039     62.90   2506.43
         B          3.316            3.039     62.90   2506.47
         B          3.316            3.039     62.90   2506.46
         B          3.316            3.039     62.90   2506.46
         B          3.317            3.039     62.90   2506.44
         B          3.326            3.039     62.90   2506.23
         B          3.324            3.039     62.90   2506.27
         B          3.317            3.039     62.90   2506.44
         B          3.319            3.039     62.90   2506.40
         B          3.316            3.039     62.90   2506.47
         B          3.319            3.039     62.90   2506.39
         B          3.322            3.039     62.90   2506.34
         B          3.323            3.039     62.90   2506.29
         B          3.324            3.039     62.90   2506.27
         B          3.327            3.039     62.90   2506.21
         N          3.129            2.478     31.22    688.74
         N          3.129            2.478     31.22    688.75
         N          3.126            2.478     31.22    688.78
         N          3.128            2.478     31.22    688.76
         N          3.129            2.478     31.22    688.74
         N          3.128            2.478     31.22    688.75
         N          3.128            2.478     31.22    688.75
         N          3.128            2.478     31.22    688.75
         N          3.129            2.478     31.22    688.74
         N          3.126            2.478     31.22    688.78
         N          3.123            2.478     31.22    688.80
         N          3.129            2.478     31.22    688.74
         N          3.128            2.478     31.22    688.75
         N          3.128            2.478     31.22    688.75
         N          3.129            2.478     31.22    688.75
         N          3.129            2.478     31.22    688.75
         N          3.130            2.478     31.22    688.74
         C1         3.171            2.750     50.35   1456.11
         N          3.126            2.478     31.22    688.77
         N          3.129            2.478     31.22    688.74
         N          3.129            2.478     31.22    688.74
         N          3.128            2.478     31.22    688.75
         N          3.126            2.478     31.22    688.77
         N          3.123            2.478     31.22    688.80
         N          3.141            2.478     31.22    688.63
         C3         3.171            2.750     50.35   1456.11
         N          3.123            2.478     31.22    688.80
         N          3.128            2.478     31.22    688.76
         N          3.127            2.478     31.22    688.77
         N          3.126            2.478     31.22    688.77
         N          3.125            2.478     31.22    688.79
         N          3.123            2.478     31.22    688.80
         N          3.130            2.478     31.22    688.74
         N          3.126            2.478     31.22    688.78
         N          3.126            2.478     31.22    688.78
         N          3.126            2.478     31.22    688.77
         N          3.126            2.478     31.22    688.78
         N          3.126            2.478     31.22    688.77
         N          3.126            2.478     31.22    688.77
         N          3.129            2.478     31.22    688.75
         N          3.129            2.478     31.22    688.74
         N          3.129            2.478     31.22    688.75
         N          3.129            2.478     31.22    688.74
         N          3.126            2.478     31.22    688.77
         N          3.127            2.478     31.22    688.77
         N          3.128            2.478     31.22    688.75
         N          3.129            2.478     31.22    688.75
         N          3.128            2.478     31.22    688.75
         N          3.129            2.478     31.22    688.74

         Molecular C6 ( Ry / a.u.^6 ) =    437764.22


     gamma-point specific algorithms are used

     Subspace diagonalization in iterative solution of the eigenvalue problem:
     one sub-group per band group will be used
     scalapack distributed-memory algorithm (size of sub-group:  5*  5 procs)

     Message from routine setup:
     DEPRECATED: symmetry with ibrav=0, use correct ibrav instead
 
     Parallelization info
     --------------------
     sticks:   dense  smooth     PW     G-vecs:    dense   smooth      PW
     Min         189     189     46                19342    19342    2406
     Max         192     192     48                19354    19354    2428
     Sum       12181   12181   3053              1238369  1238369  154965
 


     bravais-lattice index     =            0
     lattice parameter (alat)  =      33.2346  a.u.
     unit-cell volume          =   36239.0225 (a.u.)^3
     number of atoms/cell      =           98
     number of atomic types    =            5
     number of electrons       =       391.00
     number of Kohn-Sham states=          245
     kinetic-energy cutoff     =      40.0000  Ry
     charge density cutoff     =     160.0000  Ry
     convergence threshold     =      1.0E-10
     mixing beta               =       0.7000
     number of iterations used =            8  plain     mixing
     Exchange-correlation      = SLA PW PBX PBC ( 1  4  3  4 0 0)
     Using LIBXC version       =    4   3   4
     nstep                     =           50


     celldm(1)=  33.234611  celldm(2)=   0.000000  celldm(3)=   0.000000
     celldm(4)=   0.000000  celldm(5)=   0.000000  celldm(6)=   0.000000

     crystal axes: (cart. coord. in units of alat)
               a(1) = (   1.001065   0.000223   0.000000 )  
               a(2) = (  -0.500339   0.867059   0.000000 )  
               a(3) = (   0.000000   0.000000   1.137204 )  

     reciprocal axes: (cart. coord. in units 2 pi/alat)
               b(1) = (  0.998808  0.576366  0.000000 )  
               b(2) = ( -0.000257  1.153176  0.000000 )  
               b(3) = (  0.000000  0.000000  0.879350 )  


     PseudoPot. # 1 for B  read from file:
     ./pseudo/B.pbe-n-kjpaw_psl.1.0.0.UPF
     MD5 check sum: 8c825a5969375aca5c2c6ad5945b3059
     Pseudo is Projector augmented-wave + core cor, Zval =  3.0
     Generated using "atomic" code by A. Dal Corso v.6.3
     Shape of augmentation charge: PSQ
     Using radial grid of 1059 points,  4 beta functions with: 
                l(1) =   0
                l(2) =   0
                l(3) =   1
                l(4) =   1
     Q(r) pseudized with 0 coefficients 


     PseudoPot. # 2 for N  read from file:
     ./pseudo/N.pbe-n-kjpaw_psl.1.0.0.UPF
     MD5 check sum: 14c48229446f9f2d411169a3abcbc3fa
     Pseudo is Projector augmented-wave + core cor, Zval =  5.0
     Generated using "atomic" code by A. Dal Corso v.6.3
     Shape of augmentation charge: PSQ
     Using radial grid of 1085 points,  4 beta functions with: 
                l(1) =   0
                l(2) =   0
                l(3) =   1
                l(4) =   1
     Q(r) pseudized with 0 coefficients 


     PseudoPot. # 3 for C  read from file:
     ./pseudo/C.pbe-n-kjpaw_psl.1.0.0.UPF
     MD5 check sum: 5f16ad9a65e90284d1d834d4ab3b0f7d
     Pseudo is Projector augmented-wave + core cor, Zval =  4.0
     Generated using "atomic" code by A. Dal Corso v.6.3
     Shape of augmentation charge: PSQ
     Using radial grid of 1073 points,  4 beta functions with: 
                l(1) =   0
                l(2) =   0
                l(3) =   1
                l(4) =   1
     Q(r) pseudized with 0 coefficients 


     PseudoPot. # 4 for C  read from file:
     ./pseudo/C.pbe-n-kjpaw_psl.1.0.0.UPF
     MD5 check sum: 5f16ad9a65e90284d1d834d4ab3b0f7d
     Pseudo is Projector augmented-wave + core cor, Zval =  4.0
     Generated using "atomic" code by A. Dal Corso v.6.3
     Shape of augmentation charge: PSQ
     Using radial grid of 1073 points,  4 beta functions with: 
                l(1) =   0
                l(2) =   0
                l(3) =   1
                l(4) =   1
     Q(r) pseudized with 0 coefficients 


     PseudoPot. # 5 for C  read from file:
     ./pseudo/C.pbe-n-kjpaw_psl.1.0.0.UPF
     MD5 check sum: 5f16ad9a65e90284d1d834d4ab3b0f7d
     Pseudo is Projector augmented-wave + core cor, Zval =  4.0
     Generated using "atomic" code by A. Dal Corso v.6.3
     Shape of augmentation charge: PSQ
     Using radial grid of 1073 points,  4 beta functions with: 
                l(1) =   0
                l(2) =   0
                l(3) =   1
                l(4) =   1
     Q(r) pseudized with 0 coefficients 


     atomic species   valence    mass     pseudopotential
        B              3.00    10.00000     B ( 1.00)
        N              5.00    14.00000     N ( 1.00)
        C1             4.00    12.00000     C ( 1.00)
        C2             4.00    12.00000     C ( 1.00)
        C3             4.00    12.00000     C ( 1.00)

     Starting magnetic structure 
     atomic species   magnetization
        B            0.000
        N            0.000
        C1           1.000
        C2           0.000
        C3           0.000

      2 Sym. Ops. (no inversion) found



   Cartesian axes

     site n.     atom                  positions (alat units)
         1           B   tau(   1) = (  -0.0000598   0.0820643   0.5686018  )
         2           B   tau(   2) = (  -0.0715977   0.2061355   0.5686018  )
         3           B   tau(   3) = (  -0.1432776   0.3302770   0.5686018  )
         4           B   tau(   4) = (  -0.2148265   0.4541330   0.5686018  )
         5           B   tau(   5) = (  -0.2858290   0.5780236   0.5686018  )
         6           B   tau(   6) = (  -0.3570965   0.7019928   0.5686018  )
         7           B   tau(   7) = (  -0.4286970   0.8256954   0.5686018  )
         8           B   tau(   8) = (   0.1429265   0.0817776   0.5686018  )
         9           B   tau(   9) = (   0.0710281   0.2049686   0.5686018  )
        10           B   tau(  10) = (  -0.0002868   0.3300839   0.5686018  )
        11           B   tau(  11) = (  -0.0724559   0.4541377   0.5686018  )
        12           B   tau(  12) = (  -0.1437340   0.5782046   0.5686018  )
        13           B   tau(  13) = (  -0.2144934   0.7020254   0.5686018  )
        14           B   tau(  14) = (  -0.2857668   0.8255393   0.5686018  )
        15           B   tau(  15) = (   0.2863725   0.0818293   0.5686018  )
        16           B   tau(  16) = (   0.2148951   0.2046080   0.5686018  )
        17           B   tau(  17) = (   0.1428911   0.3266904   0.5686018  )
        18           B   tau(  18) = (   0.0696557   0.4554682   0.5686018  )
        19           B   tau(  19) = (  -0.0019734   0.5793273   0.5686018  )
        20           B   tau(  20) = (  -0.0718814   0.7026566   0.5686018  )
        21           B   tau(  21) = (  -0.1427721   0.8258048   0.5686018  )
        22           B   tau(  22) = (   0.4291555   0.0825859   0.5686018  )
        23           B   tau(  23) = (   0.3576088   0.2061714   0.5686018  )
        24           B   tau(  24) = (   0.2855128   0.3293485   0.5686018  )
        25           C2  tau(  25) = (   0.2168515   0.4529883   0.5686018  )
        26           B   tau(  26) = (   0.1411059   0.5792243   0.5686018  )
        27           B   tau(  27) = (   0.0712024   0.7029615   0.5686018  )
        28           B   tau(  28) = (   0.0000218   0.8262601   0.5686018  )
        29           B   tau(  29) = (   0.5719486   0.0827690   0.5686018  )
        30           B   tau(  30) = (   0.5005582   0.2065328   0.5686018  )
        31           B   tau(  31) = (   0.4290885   0.3304536   0.5686018  )
        32           B   tau(  32) = (   0.3582577   0.4553462   0.5686018  )
        33           B   tau(  33) = (   0.2892489   0.5801892   0.5686018  )
        34           B   tau(  34) = (   0.2147208   0.7024884   0.5686018  )
        35           B   tau(  35) = (   0.1430583   0.8262251   0.5686018  )
        36           B   tau(  36) = (   0.7149871   0.0828236   0.5686018  )
        37           B   tau(  37) = (   0.6434613   0.2066851   0.5686018  )
        38           B   tau(  38) = (   0.5721416   0.3305191   0.5686018  )
        39           B   tau(  39) = (   0.5009799   0.4544978   0.5686018  )
        40           B   tau(  40) = (   0.4309773   0.5788735   0.5686018  )
        41           B   tau(  41) = (   0.3587317   0.7032856   0.5686018  )
        42           B   tau(  42) = (   0.2864079   0.8262190   0.5686018  )
        43           B   tau(  43) = (   0.8581653   0.0827253   0.5686018  )
        44           B   tau(  44) = (   0.7864911   0.2066726   0.5686018  )
        45           B   tau(  45) = (   0.7150192   0.3305752   0.5686018  )
        46           B   tau(  46) = (   0.6437812   0.4543293   0.5686018  )
        47           B   tau(  47) = (   0.5730450   0.5783612   0.5686018  )
        48           B   tau(  48) = (   0.5013669   0.7026147   0.5686018  )
        49           B   tau(  49) = (   0.4296253   0.8263005   0.5686018  )
        50           N   tau(  50) = (   0.0714479   0.0409128   0.5686018  )
        51           N   tau(  51) = (  -0.0004021   0.1643457   0.5686018  )
        52           N   tau(  52) = (  -0.0717487   0.2888322   0.5686018  )
        53           N   tau(  53) = (  -0.1436236   0.4127728   0.5686018  )
        54           N   tau(  54) = (  -0.2148031   0.5366617   0.5686018  )
        55           N   tau(  55) = (  -0.2857915   0.6606079   0.5686018  )
        56           N   tau(  56) = (  -0.3572158   0.7844266   0.5686018  )
        57           N   tau(  57) = (   0.2146539   0.0408443   0.5686018  )
        58           N   tau(  58) = (   0.1428712   0.1640402   0.5686018  )
        59           N   tau(  59) = (   0.0708135   0.2872509   0.5686018  )
        60           N   tau(  60) = (  -0.0011322   0.4129507   0.5686018  )
        61           N   tau(  61) = (  -0.0727288   0.5369743   0.5686018  )
        62           N   tau(  62) = (  -0.1431825   0.6608545   0.5686018  )
        63           N   tau(  63) = (  -0.2142735   0.7844805   0.5686018  )
        64           N   tau(  64) = (   0.3578383   0.0410983   0.5686018  )
        65           N   tau(  65) = (   0.2866170   0.1641345   0.5686018  )
        66           N   tau(  66) = (   0.2150200   0.2863868   0.5686018  )
        67           C1  tau(  67) = (   0.1446972   0.4124524   0.5686018  )
        68           N   tau(  68) = (   0.0686966   0.5385259   0.5686018  )
        69           N   tau(  69) = (  -0.0006726   0.6617798   0.5686018  )
        70           N   tau(  70) = (  -0.0714389   0.7849758   0.5686018  )
        71           N   tau(  71) = (   0.5005358   0.0416036   0.5686018  )
        72           N   tau(  72) = (   0.4291297   0.1652461   0.5686018  )
        73           N   tau(  73) = (   0.3573523   0.2892277   0.5686018  )
        74           N   tau(  74) = (   0.2853706   0.4134291   0.5686018  )
        75           C3  tau(  75) = (   0.2158793   0.5357439   0.5686018  )
        76           N   tau(  76) = (   0.1425328   0.6617869   0.5686018  )
        77           N   tau(  77) = (   0.0714414   0.7852768   0.5686018  )
        78           N   tau(  78) = (   0.6434579   0.0416561   0.5686018  )
        79           N   tau(  79) = (   0.5719774   0.1653739   0.5686018  )
        80           N   tau(  80) = (   0.5004390   0.2892592   0.5686018  )
        81           N   tau(  81) = (   0.4289231   0.4131918   0.5686018  )
        82           N   tau(  82) = (   0.3602173   0.5378753   0.5686018  )
        83           N   tau(  83) = (   0.2873654   0.6623296   0.5686018  )
        84           N   tau(  84) = (   0.2147145   0.7850018   0.5686018  )
        85           N   tau(  85) = (   0.7865613   0.0416339   0.5686018  )
        86           N   tau(  86) = (   0.7149556   0.1654081   0.5686018  )
        87           N   tau(  87) = (   0.6434959   0.2892476   0.5686018  )
        88           N   tau(  88) = (   0.5721826   0.4130212   0.5686018  )
        89           N   tau(  89) = (   0.5018891   0.5369964   0.5686018  )
        90           N   tau(  90) = (   0.4300982   0.6615311   0.5686018  )
        91           N   tau(  91) = (   0.3581968   0.7854574   0.5686018  )
        92           N   tau(  92) = (   0.9295940   0.0414869   0.5686018  )
        93           N   tau(  93) = (   0.8579503   0.1652828   0.5686018  )
        94           N   tau(  94) = (   0.7863791   0.2892024   0.5686018  )
        95           N   tau(  95) = (   0.7149631   0.4130028   0.5686018  )
        96           N   tau(  96) = (   0.6440519   0.5368352   0.5686018  )
        97           N   tau(  97) = (   0.5726800   0.6609635   0.5686018  )
        98           N   tau(  98) = (   0.5010180   0.7849498   0.5686018  )

     number of k points=     1
                       cart. coord. in units 2pi/alat
        k(    1) = (   0.0000000   0.0000000   0.0000000), wk =   1.0000000

     Dense  grid:   619185 G-vectors     FFT dimensions: ( 135, 135, 160)

     Occupations read from input 

      Spin-up

        1.0000   1.0000   1.0000   1.0000   1.0000   1.0000   1.0000   1.0000
        1.0000   1.0000   1.0000   1.0000   1.0000   1.0000   1.0000   1.0000
        1.0000   1.0000   1.0000   1.0000   1.0000   1.0000   1.0000   1.0000
        1.0000   1.0000   1.0000   1.0000   1.0000   1.0000   1.0000   1.0000
        1.0000   1.0000   1.0000   1.0000   1.0000   1.0000   1.0000   1.0000
        1.0000   1.0000   1.0000   1.0000   1.0000   1.0000   1.0000   1.0000
        1.0000   1.0000   1.0000   1.0000   1.0000   1.0000   1.0000   1.0000
        1.0000   1.0000   1.0000   1.0000   1.0000   1.0000   1.0000   1.0000
        1.0000   1.0000   1.0000   1.0000   1.0000   1.0000   1.0000   1.0000
        1.0000   1.0000   1.0000   1.0000   1.0000   1.0000   1.0000   1.0000
        1.0000   1.0000   1.0000   1.0000   1.0000   1.0000   1.0000   1.0000
        1.0000   1.0000   1.0000   1.0000   1.0000   1.0000   1.0000   1.0000
        1.0000   1.0000   1.0000   1.0000   1.0000   1.0000   1.0000   1.0000
        1.0000   1.0000   1.0000   1.0000   1.0000   1.0000   1.0000   1.0000
        1.0000   1.0000   1.0000   1.0000   1.0000   1.0000   1.0000   1.0000
        1.0000   1.0000   1.0000   1.0000   1.0000   1.0000   1.0000   1.0000
        1.0000   1.0000   1.0000   1.0000   1.0000   1.0000   1.0000   1.0000
        1.0000   1.0000   1.0000   1.0000   1.0000   1.0000   1.0000   1.0000
        1.0000   1.0000   1.0000   1.0000   1.0000   1.0000   1.0000   1.0000
        1.0000   1.0000   1.0000   1.0000   1.0000   1.0000   1.0000   1.0000
        1.0000   1.0000   1.0000   1.0000   1.0000   1.0000   1.0000   1.0000
        1.0000   1.0000   1.0000   1.0000   1.0000   1.0000   1.0000   1.0000
        1.0000   1.0000   1.0000   1.0000   1.0000   1.0000   1.0000   1.0000
        1.0000   1.0000   1.0000   1.0000   1.0000   1.0000   1.0000   1.0000
        1.0000   1.0000   1.0000   1.0000   1.0000   0.0000   0.0000   0.0000
        0.0000   0.0000   0.0000   0.0000   0.0000   0.0000   0.0000   0.0000
        0.0000   0.0000   0.0000   0.0000   0.0000   0.0000   0.0000   0.0000
        0.0000   0.0000   0.0000   0.0000   0.0000   0.0000   0.0000   0.0000
        0.0000   0.0000   0.0000   0.0000   0.0000   0.0000   0.0000   0.0000
        0.0000   0.0000   0.0000   0.0000   0.0000   0.0000   0.0000   0.0000
        0.0000   0.0000   0.0000   0.0000   0.0000

      Spin-down

        1.0000   1.0000   1.0000   1.0000   1.0000   1.0000   1.0000   1.0000
        1.0000   1.0000   1.0000   1.0000   1.0000   1.0000   1.0000   1.0000
        1.0000   1.0000   1.0000   1.0000   1.0000   1.0000   1.0000   1.0000
        1.0000   1.0000   1.0000   1.0000   1.0000   1.0000   1.0000   1.0000
        1.0000   1.0000   1.0000   1.0000   1.0000   1.0000   1.0000   1.0000
        1.0000   1.0000   1.0000   1.0000   1.0000   1.0000   1.0000   1.0000
        1.0000   1.0000   1.0000   1.0000   1.0000   1.0000   1.0000   1.0000
        1.0000   1.0000   1.0000   1.0000   1.0000   1.0000   1.0000   1.0000
        1.0000   1.0000   1.0000   1.0000   1.0000   1.0000   1.0000   1.0000
        1.0000   1.0000   1.0000   1.0000   1.0000   1.0000   1.0000   1.0000
        1.0000   1.0000   1.0000   1.0000   1.0000   1.0000   1.0000   1.0000
        1.0000   1.0000   1.0000   1.0000   1.0000   1.0000   1.0000   1.0000
        1.0000   1.0000   1.0000   1.0000   1.0000   1.0000   1.0000   1.0000
        1.0000   1.0000   1.0000   1.0000   1.0000   1.0000   1.0000   1.0000
        1.0000   1.0000   1.0000   1.0000   1.0000   1.0000   1.0000   1.0000
        1.0000   1.0000   1.0000   1.0000   1.0000   1.0000   1.0000   1.0000
        1.0000   1.0000   1.0000   1.0000   1.0000   1.0000   1.0000   1.0000
        1.0000   1.0000   1.0000   1.0000   1.0000   1.0000   1.0000   1.0000
        1.0000   1.0000   1.0000   1.0000   1.0000   1.0000   1.0000   1.0000
        1.0000   1.0000   1.0000   1.0000   1.0000   1.0000   1.0000   1.0000
        1.0000   1.0000   1.0000   1.0000   1.0000   1.0000   1.0000   1.0000
        1.0000   1.0000   1.0000   1.0000   1.0000   1.0000   1.0000   1.0000
        1.0000   1.0000   1.0000   1.0000   1.0000   1.0000   1.0000   1.0000
        1.0000   1.0000   1.0000   1.0000   1.0000   1.0000   1.0000   1.0000
        1.0000   1.0000   0.0000   0.0000   0.0000   0.0000   0.0000   0.0000
        0.0000   0.0000   0.0000   0.0000   0.0000   0.0000   0.0000   0.0000
        0.0000   0.0000   0.0000   0.0000   0.0000   0.0000   0.0000   0.0000
        0.0000   0.0000   0.0000   0.0000   0.0000   0.0000   0.0000   0.0000
        0.0000   0.0000   0.0000   0.0000   0.0000   0.0000   0.0000   0.0000
        0.0000   0.0000   0.0000   0.0000   0.0000   0.0000   0.0000   0.0000
        0.0000   0.0000   0.0000   0.0000   0.0000

     Estimated max dynamical RAM per process >     122.42 MB

     Estimated total dynamical RAM >       7.65 GB
     Generating pointlists ...
     new r_m :   0.0337 (alat units)  1.1187 (a.u.) for type    1
     new r_m :   0.0326 (alat units)  1.0847 (a.u.) for type    2
     new r_m :   0.0341 (alat units)  1.1346 (a.u.) for type    3
     new r_m :   0.0326 (alat units)  1.0847 (a.u.) for type    4
     new r_m :   0.0341 (alat units)  1.1346 (a.u.) for type    5

     Check: negative core charge=   -0.000006

     Initial potential from superposition of free atoms

     starting charge  390.98597, renormalised to  391.00000

     negative rho (up, down):  5.510E-02 5.829E-02
     Starting wfcs are  392 randomized atomic wfcs
     Checking if some PAW data can be deallocated... 

     total cpu time spent up to now is        8.1 secs

     Self-consistent Calculation

     iteration #  1     ecut=    40.00 Ry     beta= 0.70
     CG style diagonalization
     ethr =  1.00E-02,  avg # of iterations =  3.1

     negative rho (up, down):  3.264E-01 1.550E-02

     total cpu time spent up to now is       45.4 secs

     total energy              =   -1933.25671798 Ry
     Harris-Foulkes estimate   =   -1946.27481176 Ry
     estimated scf accuracy    <      19.77052896 Ry

     total magnetization       =     3.00 Bohr mag/cell
     absolute magnetization    =     3.32 Bohr mag/cell

     iteration #  2     ecut=    40.00 Ry     beta= 0.70
     CG style diagonalization
     ethr =  5.06E-03,  avg # of iterations =  4.0

     negative rho (up, down):  3.622E-01 1.190E-02

     total cpu time spent up to now is       81.2 secs

     total energy              =   -1937.43113900 Ry
     Harris-Foulkes estimate   =   -1943.63366311 Ry
     estimated scf accuracy    <      12.12422930 Ry

     total magnetization       =     3.00 Bohr mag/cell
     absolute magnetization    =     3.24 Bohr mag/cell

     iteration #  3     ecut=    40.00 Ry     beta= 0.70
     CG style diagonalization
     ethr =  3.10E-03,  avg # of iterations =  3.8

     negative rho (up, down):  4.052E-01 1.243E-02

     total cpu time spent up to now is      116.4 secs

     total energy              =   -1939.65526899 Ry
     Harris-Foulkes estimate   =   -1940.41192288 Ry
     estimated scf accuracy    <       1.39502140 Ry

     total magnetization       =     3.00 Bohr mag/cell
     absolute magnetization    =     3.23 Bohr mag/cell

     iteration #  4     ecut=    40.00 Ry     beta= 0.70
     CG style diagonalization
     c_bands:  1 eigenvalues not converged
     ethr =  3.57E-04,  avg # of iterations =  4.2

     negative rho (up, down):  4.545E-01 1.156E-02

     total cpu time spent up to now is      155.0 secs

     total energy              =   -1939.95790314 Ry
     Harris-Foulkes estimate   =   -1940.46954280 Ry
     estimated scf accuracy    <       1.63026048 Ry

     total magnetization       =     3.00 Bohr mag/cell
     absolute magnetization    =     3.20 Bohr mag/cell

     iteration #  5     ecut=    40.00 Ry     beta= 0.70
     CG style diagonalization
     c_bands:  1 eigenvalues not converged
     ethr =  3.57E-04,  avg # of iterations =  3.2

     negative rho (up, down):  4.640E-01 1.140E-02

     total cpu time spent up to now is      182.2 secs

     total energy              =   -1940.17872019 Ry
     Harris-Foulkes estimate   =   -1940.21026211 Ry
     estimated scf accuracy    <       0.09072697 Ry

     total magnetization       =     3.00 Bohr mag/cell
     absolute magnetization    =     3.20 Bohr mag/cell

     iteration #  6     ecut=    40.00 Ry     beta= 0.70
     CG style diagonalization
     c_bands:  1 eigenvalues not converged
     ethr =  2.32E-05,  avg # of iterations =  7.6

     negative rho (up, down):  4.755E-01 1.228E-02

     total cpu time spent up to now is      248.2 secs

     total energy              =   -1940.19427673 Ry
     Harris-Foulkes estimate   =   -1940.19550203 Ry
     estimated scf accuracy    <       0.01596603 Ry

     total magnetization       =     3.00 Bohr mag/cell
     absolute magnetization    =     3.19 Bohr mag/cell

     iteration #  7     ecut=    40.00 Ry     beta= 0.70
     CG style diagonalization
     c_bands:  5 eigenvalues not converged
     c_bands:  5 eigenvalues not converged
     ethr =  4.08E-06,  avg # of iterations =  4.3

     negative rho (up, down):  4.809E-01 1.282E-02

     total cpu time spent up to now is      287.3 secs

     total energy              =   -1940.19714208 Ry
     Harris-Foulkes estimate   =   -1940.19846895 Ry
     estimated scf accuracy    <       0.00536942 Ry

     total magnetization       =     3.00 Bohr mag/cell
     absolute magnetization    =     3.17 Bohr mag/cell

     iteration #  8     ecut=    40.00 Ry     beta= 0.70
     CG style diagonalization
     c_bands:  5 eigenvalues not converged
     c_bands:  4 eigenvalues not converged
     ethr =  1.37E-06,  avg # of iterations =  4.1

     negative rho (up, down):  4.827E-01 1.300E-02

     total cpu time spent up to now is      324.4 secs

     total energy              =   -1940.19841893 Ry
     Harris-Foulkes estimate   =   -1940.19865916 Ry
     estimated scf accuracy    <       0.00092738 Ry

     total magnetization       =     3.00 Bohr mag/cell
     absolute magnetization    =     3.17 Bohr mag/cell

     iteration #  9     ecut=    40.00 Ry     beta= 0.70
     CG style diagonalization
     c_bands:  2 eigenvalues not converged
     c_bands:  2 eigenvalues not converged
     ethr =  2.37E-07,  avg # of iterations =  3.9

     negative rho (up, down):  4.833E-01 1.313E-02

     total cpu time spent up to now is      359.6 secs

     total energy              =   -1940.19874983 Ry
     Harris-Foulkes estimate   =   -1940.19887394 Ry
     estimated scf accuracy    <       0.00053946 Ry

     total magnetization       =     3.00 Bohr mag/cell
     absolute magnetization    =     3.17 Bohr mag/cell

     iteration # 10     ecut=    40.00 Ry     beta= 0.70
     CG style diagonalization
     c_bands:  2 eigenvalues not converged
     ethr =  1.38E-07,  avg # of iterations =  3.5

     negative rho (up, down):  4.834E-01 1.322E-02

     total cpu time spent up to now is      389.9 secs

     total energy              =   -1940.19888158 Ry
     Harris-Foulkes estimate   =   -1940.19887217 Ry
     estimated scf accuracy    <       0.00003761 Ry

     total magnetization       =     3.00 Bohr mag/cell
     absolute magnetization    =     3.17 Bohr mag/cell

     iteration # 11     ecut=    40.00 Ry     beta= 0.70
     CG style diagonalization
     c_bands:  1 eigenvalues not converged
     ethr =  9.62E-09,  avg # of iterations =  3.8

     negative rho (up, down):  4.834E-01 1.324E-02

     total cpu time spent up to now is      423.6 secs

     total energy              =   -1940.19890286 Ry
     Harris-Foulkes estimate   =   -1940.19889693 Ry
     estimated scf accuracy    <       0.00000746 Ry

     total magnetization       =     3.00 Bohr mag/cell
     absolute magnetization    =     3.17 Bohr mag/cell

     iteration # 12     ecut=    40.00 Ry     beta= 0.70
     CG style diagonalization
     ethr =  1.91E-09,  avg # of iterations =  3.8

     negative rho (up, down):  4.835E-01 1.324E-02

     total cpu time spent up to now is      457.5 secs

     total energy              =   -1940.19890736 Ry
     Harris-Foulkes estimate   =   -1940.19890693 Ry
     estimated scf accuracy    <       0.00000222 Ry

     total magnetization       =     3.00 Bohr mag/cell
     absolute magnetization    =     3.17 Bohr mag/cell

     iteration # 13     ecut=    40.00 Ry     beta= 0.70
     CG style diagonalization
     ethr =  5.67E-10,  avg # of iterations =  3.7

     negative rho (up, down):  4.834E-01 1.322E-02

     total cpu time spent up to now is      489.9 secs

     total energy              =   -1940.19890848 Ry
     Harris-Foulkes estimate   =   -1940.19890826 Ry
     estimated scf accuracy    <       0.00000059 Ry

     total magnetization       =     3.00 Bohr mag/cell
     absolute magnetization    =     3.17 Bohr mag/cell

     iteration # 14     ecut=    40.00 Ry     beta= 0.70
     CG style diagonalization
     ethr =  1.51E-10,  avg # of iterations =  3.8

     negative rho (up, down):  4.834E-01 1.323E-02

     total cpu time spent up to now is      524.0 secs

     total energy              =   -1940.19890871 Ry
     Harris-Foulkes estimate   =   -1940.19890884 Ry
     estimated scf accuracy    <       0.00000031 Ry

     total magnetization       =     3.00 Bohr mag/cell
     absolute magnetization    =     3.17 Bohr mag/cell

     iteration # 15     ecut=    40.00 Ry     beta= 0.70
     CG style diagonalization
     ethr =  8.03E-11,  avg # of iterations =  3.4

     negative rho (up, down):  4.834E-01 1.322E-02

     total cpu time spent up to now is      552.3 secs

     total energy              =   -1940.19890877 Ry
     Harris-Foulkes estimate   =   -1940.19890879 Ry
     estimated scf accuracy    <       0.00000006 Ry

     total magnetization       =     3.00 Bohr mag/cell
     absolute magnetization    =     3.17 Bohr mag/cell

     iteration # 16     ecut=    40.00 Ry     beta= 0.70
     CG style diagonalization
     ethr =  1.43E-11,  avg # of iterations =  3.9

     negative rho (up, down):  4.834E-01 1.322E-02

     total cpu time spent up to now is      586.8 secs

     total energy              =   -1940.19890880 Ry
     Harris-Foulkes estimate   =   -1940.19890881 Ry
     estimated scf accuracy    <       0.00000004 Ry

     total magnetization       =     3.00 Bohr mag/cell
     absolute magnetization    =     3.17 Bohr mag/cell

     iteration # 17     ecut=    40.00 Ry     beta= 0.70
     CG style diagonalization
     ethr =  1.09E-11,  avg # of iterations =  3.3

     negative rho (up, down):  4.834E-01 1.322E-02

     total cpu time spent up to now is      615.1 secs

     total energy              =   -1940.19890881 Ry
     Harris-Foulkes estimate   =   -1940.19890881 Ry
     estimated scf accuracy    <          3.6E-09 Ry

     total magnetization       =     3.00 Bohr mag/cell
     absolute magnetization    =     3.17 Bohr mag/cell

     iteration # 18     ecut=    40.00 Ry     beta= 0.70
     CG style diagonalization
     ethr =  9.23E-13,  avg # of iterations =  3.9

     negative rho (up, down):  4.834E-01 1.322E-02

     total cpu time spent up to now is      649.3 secs

     total energy              =   -1940.19890881 Ry
     Harris-Foulkes estimate   =   -1940.19890881 Ry
     estimated scf accuracy    <          5.9E-10 Ry

     total magnetization       =     3.00 Bohr mag/cell
     absolute magnetization    =     3.17 Bohr mag/cell

     iteration # 19     ecut=    40.00 Ry     beta= 0.70
     CG style diagonalization
     ethr =  1.51E-13,  avg # of iterations =  3.8

     negative rho (up, down):  4.834E-01 1.322E-02

     total cpu time spent up to now is      682.6 secs

     total energy              =   -1940.19890881 Ry
     Harris-Foulkes estimate   =   -1940.19890881 Ry
     estimated scf accuracy    <          4.2E-10 Ry

     total magnetization       =     3.00 Bohr mag/cell
     absolute magnetization    =     3.17 Bohr mag/cell

     iteration # 20     ecut=    40.00 Ry     beta= 0.70
     CG style diagonalization
     ethr =  1.07E-13,  avg # of iterations =  3.6

     negative rho (up, down):  4.834E-01 1.323E-02
 
     Magnetic moment per site:
     atom:    1    charge:    0.8565    magn:   -0.0000    constr:    0.0000
     atom:    2    charge:    0.8511    magn:    0.0014    constr:    0.0000
     atom:    3    charge:    0.8520    magn:    0.0012    constr:    0.0000
     atom:    4    charge:    0.8545    magn:    0.0001    constr:    0.0000
     atom:    5    charge:    0.8570    magn:    0.0006    constr:    0.0000
     atom:    6    charge:    0.8555    magn:    0.0000    constr:    0.0000
     atom:    7    charge:    0.8566    magn:    0.0007    constr:    0.0000
     atom:    8    charge:    0.8555    magn:    0.0006    constr:    0.0000
     atom:    9    charge:    0.8568    magn:    0.0003    constr:    0.0000
     atom:   10    charge:    0.8478    magn:    0.0073    constr:    0.0000
     atom:   11    charge:    0.8527    magn:    0.0006    constr:    0.0000
     atom:   12    charge:    0.8574    magn:    0.0004    constr:    0.0000
     atom:   13    charge:    0.8571    magn:   -0.0000    constr:    0.0000
     atom:   14    charge:    0.8555    magn:    0.0000    constr:    0.0000
     atom:   15    charge:    0.8557    magn:    0.0007    constr:    0.0000
     atom:   16    charge:    0.8605    magn:    0.0037    constr:    0.0000
     atom:   17    charge:    0.8679    magn:    0.0134    constr:    0.0000
     atom:   18    charge:    0.8564    magn:    0.0155    constr:    0.0000
     atom:   19    charge:    0.8639    magn:    0.0032    constr:    0.0000
     atom:   20    charge:    0.8574    magn:    0.0004    constr:    0.0000
     atom:   21    charge:    0.8570    magn:    0.0006    constr:    0.0000
     atom:   22    charge:    0.8522    magn:    0.0001    constr:    0.0000
     atom:   23    charge:    0.8489    magn:    0.0004    constr:    0.0000
     atom:   24    charge:    0.8447    magn:    0.0117    constr:    0.0000
     atom:   25    charge:    1.5930    magn:    0.1963    constr:    0.0000
     atom:   26    charge:    0.8564    magn:    0.0155    constr:    0.0000
     atom:   27    charge:    0.8527    magn:    0.0006    constr:    0.0000
     atom:   28    charge:    0.8545    magn:    0.0001    constr:    0.0000
     atom:   29    charge:    0.8522    magn:    0.0006    constr:    0.0000
     atom:   30    charge:    0.8523    magn:    0.0011    constr:    0.0000
     atom:   31    charge:    0.8509    magn:    0.0054    constr:    0.0000
     atom:   32    charge:    0.8447    magn:    0.0117    constr:    0.0000
     atom:   33    charge:    0.8679    magn:    0.0134    constr:    0.0000
     atom:   34    charge:    0.8478    magn:    0.0073    constr:    0.0000
     atom:   35    charge:    0.8520    magn:    0.0012    constr:    0.0000
     atom:   36    charge:    0.8515    magn:    0.0003    constr:    0.0000
     atom:   37    charge:    0.8507    magn:    0.0003    constr:    0.0000
     atom:   38    charge:    0.8523    magn:    0.0011    constr:    0.0000
     atom:   39    charge:    0.8489    magn:    0.0004    constr:    0.0000
     atom:   40    charge:    0.8605    magn:    0.0037    constr:    0.0000
     atom:   41    charge:    0.8568    magn:    0.0003    constr:    0.0000
     atom:   42    charge:    0.8511    magn:    0.0014    constr:    0.0000
     atom:   43    charge:    0.8515    magn:    0.0006    constr:    0.0000
     atom:   44    charge:    0.8515    magn:    0.0003    constr:    0.0000
     atom:   45    charge:    0.8522    magn:    0.0006    constr:    0.0000
     atom:   46    charge:    0.8522    magn:    0.0001    constr:    0.0000
     atom:   47    charge:    0.8557    magn:    0.0007    constr:    0.0000
     atom:   48    charge:    0.8555    magn:    0.0006    constr:    0.0000
     atom:   49    charge:    0.8565    magn:   -0.0000    constr:    0.0000
     atom:   50    charge:    2.6633    magn:    0.0005    constr:    0.0000
     atom:   51    charge:    2.6637    magn:   -0.0005    constr:    0.0000
     atom:   52    charge:    2.6520    magn:    0.0056    constr:    0.0000
     atom:   53    charge:    2.6627    magn:    0.0008    constr:    0.0000
     atom:   54    charge:    2.6638    magn:    0.0004    constr:    0.0000
     atom:   55    charge:    2.6545    magn:    0.0006    constr:    0.0000
     atom:   56    charge:    2.6576    magn:    0.0002    constr:    0.0000
     atom:   57    charge:    2.6596    magn:    0.0018    constr:    0.0000
     atom:   58    charge:    2.6599    magn:    0.0080    constr:    0.0000
     atom:   59    charge:    2.6533    magn:    0.0203    constr:    0.0000
     atom:   60    charge:    2.6529    magn:    0.0098    constr:    0.0000
     atom:   61    charge:    2.6594    magn:    0.0119    constr:    0.0000
     atom:   62    charge:    2.6553    magn:    0.0053    constr:    0.0000
     atom:   63    charge:    2.6545    magn:    0.0006    constr:    0.0000
     atom:   64    charge:    2.6627    magn:    0.0002    constr:    0.0000
     atom:   65    charge:    2.6628    magn:    0.0032    constr:    0.0000
     atom:   66    charge:    2.6615    magn:    0.0206    constr:    0.0000
     atom:   67    charge:    1.7661    magn:    0.1873    constr:    0.0000
     atom:   68    charge:    2.6511    magn:    0.0690    constr:    0.0000
     atom:   69    charge:    2.6594    magn:    0.0119    constr:    0.0000
     atom:   70    charge:    2.6638    magn:    0.0004    constr:    0.0000
     atom:   71    charge:    2.6629    magn:    0.0002    constr:    0.0000
     atom:   72    charge:    2.6578    magn:    0.0000    constr:    0.0000
     atom:   73    charge:    2.6526    magn:    0.0088    constr:    0.0000
     atom:   74    charge:    2.6252    magn:    0.0855    constr:    0.0000
     atom:   75    charge:    1.7661    magn:    0.1873    constr:    0.0000
     atom:   76    charge:    2.6529    magn:    0.0098    constr:    0.0000
     atom:   77    charge:    2.6627    magn:    0.0008    constr:    0.0000
     atom:   78    charge:    2.6605    magn:    0.0002    constr:    0.0000
     atom:   79    charge:    2.6572    magn:    0.0000    constr:    0.0000
     atom:   80    charge:    2.6497    magn:    0.0034    constr:    0.0000
     atom:   81    charge:    2.6526    magn:    0.0088    constr:    0.0000
     atom:   82    charge:    2.6615    magn:    0.0206    constr:    0.0000
     atom:   83    charge:    2.6533    magn:    0.0203    constr:    0.0000
     atom:   84    charge:    2.6520    magn:    0.0056    constr:    0.0000
     atom:   85    charge:    2.6596    magn:    0.0003    constr:    0.0000
     atom:   86    charge:    2.6586    magn:    0.0000    constr:    0.0000
     atom:   87    charge:    2.6572    magn:    0.0000    constr:    0.0000
     atom:   88    charge:    2.6578    magn:    0.0000    constr:    0.0000
     atom:   89    charge:    2.6628    magn:    0.0032    constr:    0.0000
     atom:   90    charge:    2.6599    magn:    0.0080    constr:    0.0000
     atom:   91    charge:    2.6637    magn:   -0.0005    constr:    0.0000
     atom:   92    charge:    2.6643    magn:   -0.0001    constr:    0.0000
     atom:   93    charge:    2.6596    magn:    0.0003    constr:    0.0000
     atom:   94    charge:    2.6605    magn:    0.0002    constr:    0.0000
     atom:   95    charge:    2.6629    magn:    0.0002    constr:    0.0000
     atom:   96    charge:    2.6627    magn:    0.0002    constr:    0.0000
     atom:   97    charge:    2.6596    magn:    0.0018    constr:    0.0000
     atom:   98    charge:    2.6633    magn:    0.0005    constr:    0.0000

     total cpu time spent up to now is      713.6 secs

     End of self-consistent calculation

 ------ SPIN UP ------------


          k = 0.0000 0.0000 0.0000 ( 77483 PWs)   bands (ev):

   -21.8542 -21.6351 -21.3798 -21.3722 -21.3557 -21.2947 -21.2776 -20.8791
   -20.6472 -20.6351 -20.6138 -20.5377 -20.5328 -20.4142 -20.2815 -20.2797
   -20.2641 -20.1241 -20.1111 -19.5885 -19.4041 -19.3896 -19.3812 -19.3778
   -19.3681 -19.3594 -19.3580 -19.3170 -19.3081 -19.1630 -19.1492 -19.0263
   -18.9609 -18.9578 -18.9361 -18.7653 -18.7604 -18.5390 -18.5323 -18.5128
   -18.5124 -18.4570 -18.4188 -18.3831 -18.3534 -18.3320 -18.3291 -16.9455
   -15.1097 -13.2211 -12.7671 -12.7646 -12.7355 -12.7065 -12.6996 -12.6425
   -12.5508 -12.5202 -12.5135 -12.4890 -12.4096 -12.1472 -12.0553 -12.0505
   -12.0142 -11.9836 -11.9424 -11.5647 -11.4196 -11.4084 -11.3814 -11.3806
   -11.3547 -11.3546 -11.3497 -11.3124 -11.2985 -11.1012 -11.0602 -10.8685
   -10.7106 -10.6960 -10.6674 -10.6550 -10.5121 -10.0687 -10.0283 -10.0035
    -9.9335  -9.8800  -9.8206  -9.3928  -9.3535  -9.3147  -9.3105  -9.2777
    -9.2662  -9.2151  -9.0557  -8.9944  -8.9495  -8.9092  -8.8982  -8.8895
    -8.8863  -8.8796  -8.8707  -8.8474  -8.8179  -8.8167  -8.8124  -8.8122
    -8.7966  -8.7908  -8.7903  -8.7565  -8.7515  -8.7281  -8.6635  -8.6420
    -8.4706  -8.4675  -8.2034  -8.1797  -8.1769  -8.1097  -8.0830  -8.0107
    -7.8787  -7.8233  -7.8228  -7.7960  -7.7506  -7.7295  -7.5613  -7.5073
    -7.4900  -7.4678  -7.4585  -7.4372  -7.4215  -7.3891  -7.3861  -7.3398
    -7.3374  -7.3352  -7.3265  -7.2806  -7.2731  -7.2309  -7.2231  -7.0413
    -7.0198  -6.9876  -6.9158  -6.8241  -6.6625  -6.5664  -6.3153  -6.1874
    -6.1777  -6.1439  -6.0821  -6.0784  -6.0699  -6.0577  -6.0542  -6.0489
    -6.0369  -6.0314  -6.0220  -5.9969  -5.9380  -5.8338  -5.8231  -5.7333
    -5.5429  -5.4450  -5.4397  -5.4354  -5.3897  -5.2931  -5.1805  -5.1459
    -4.8020  -4.7906  -4.7707  -4.7535  -4.7177  -4.6705  -4.5684  -4.5143
    -4.5102  -4.4905  -4.4888  -3.8071  -0.2884   0.1785   0.6627   0.6705
     0.7070   0.7220   0.7245   0.7322   0.7922   0.7939   0.8078   0.8140
     0.8191   0.8318   0.8388   0.8487   0.8702   0.8865   0.9096   0.9146
     0.9364   1.1101   1.1925   1.2135   1.2296   1.2475   1.2889   1.3205
     1.3261   1.3305   1.3401   1.3512   1.3788   1.4358   1.4383   1.4421
     1.4487   1.4563   1.4732   1.8822   2.0375   2.0950   2.0997   2.1108
     2.1111   2.1234   2.1301   2.2062   2.2378

 ------ SPIN DOWN ----------


          k = 0.0000 0.0000 0.0000 ( 77483 PWs)   bands (ev):

   -21.7531 -21.5399 -21.3746 -21.3651 -21.3501 -21.2768 -21.2244 -20.8197
   -20.6374 -20.6168 -20.6011 -20.5272 -20.5125 -20.3985 -20.2674 -20.2637
   -20.2401 -20.0889 -20.0745 -19.5433 -19.3947 -19.3791 -19.3748 -19.3690
   -19.3589 -19.3517 -19.3381 -19.2907 -19.2862 -19.1384 -19.1357 -19.0109
   -18.9492 -18.9487 -18.9100 -18.7446 -18.7314 -18.5255 -18.5196 -18.4993
   -18.4908 -18.4470 -18.3968 -18.3752 -18.3437 -18.3225 -18.3089 -16.3974
   -14.5973 -13.0432 -12.7559 -12.7488 -12.7281 -12.6994 -12.6933 -12.6275
   -12.5399 -12.5073 -12.4997 -12.4493 -12.3851 -12.1252 -12.0430 -12.0361
   -12.0029 -11.9590 -11.9146 -11.5201 -11.3948 -11.3841 -11.3735 -11.3632
   -11.3502 -11.3420 -11.3411 -11.2894 -11.2667 -11.0314 -11.0064 -10.8434
   -10.7018 -10.6908 -10.6525 -10.6207 -10.4779 -10.0448 -10.0054  -9.9848
    -9.9026  -9.8415  -9.7860  -9.3739  -9.2962  -9.2823  -9.2784  -9.2667
    -9.2592  -9.2057  -9.0293  -8.9253  -8.8928  -8.8923  -8.8834  -8.8728
    -8.8648  -8.8624  -8.8347  -8.8269  -8.8053  -8.8053  -8.8052  -8.7878
    -8.7823  -8.7800  -8.7789  -8.7042  -8.6971  -8.6251  -8.6000  -8.5385
    -8.4445  -8.4088  -8.1999  -8.1738  -8.1737  -8.0602  -8.0533  -7.8490
    -7.8235  -7.8002  -7.7751  -7.7647  -7.6842  -7.6402  -7.5347  -7.4926
    -7.4784  -7.4527  -7.4330  -7.4185  -7.3806  -7.3798  -7.3701  -7.3273
    -7.3027  -7.2964  -7.2727  -7.2641  -7.2019  -7.1358  -7.0687  -7.0146
    -7.0111  -6.9814  -6.8342  -6.7624  -6.6219  -6.5201  -6.1745  -6.1643
    -6.1394  -6.1287  -6.0561  -6.0430  -6.0355  -6.0305  -6.0291  -6.0232
    -6.0119  -5.9926  -5.9478  -5.9408  -5.7946  -5.7500  -5.7434  -5.6867
    -5.4776  -5.4201  -5.4071  -5.3854  -5.1893  -5.1763  -5.0728  -5.0046
    -4.7555  -4.7437  -4.7247  -4.7194  -4.6385  -4.6074  -4.5299  -4.4851
    -4.4699  -4.4629  -3.8174  -2.6915   0.1882   0.5392   0.7120   0.7250
     0.7365   0.7542   0.7696   0.7743   0.7918   0.8096   0.8142   0.8207
     0.8315   0.8371   0.8596   0.8743   0.9069   0.9399   0.9417   0.9698
     1.0454   1.1943   1.2538   1.2830   1.2885   1.3204   1.3246   1.3301
     1.3409   1.3450   1.3479   1.3859   1.4099   1.4337   1.4358   1.4400
     1.4471   1.4551   1.4840   1.8877   2.1012   2.1044   2.1134   2.1217
     2.1440   2.1582   2.3152   2.3227   2.3577

     highest occupied, lowest unoccupied level (ev):    -0.2884   -3.8174

!    total energy              =   -1940.19890881 Ry
     Harris-Foulkes estimate   =   -1940.19890881 Ry
     estimated scf accuracy    <          3.4E-11 Ry

     total all-electron energy =     -7770.023386 Ry

     The total energy is the sum of the following terms:

     one-electron contribution =  -10643.03028120 Ry
     hartree contribution      =    5407.28678397 Ry
     xc contribution           =    -430.72133466 Ry
     ewald contribution        =    4369.71099438 Ry
     DFT-D3 Dispersion         =      -0.27010924 Ry
     one-center paw contrib.   =    -643.17496207 Ry

     total magnetization       =     3.00 Bohr mag/cell
     absolute magnetization    =     3.17 Bohr mag/cell

     convergence has been achieved in  20 iterations

     negative rho (up, down):  4.834E-01 1.323E-02

     Forces acting on atoms (cartesian axes, Ry/au):

     atom    1 type  1   force =     0.00005007    0.00007898    0.00000000
     atom    2 type  1   force =    -0.00003839    0.00010971    0.00000000
     atom    3 type  1   force =     0.00002572   -0.00000841    0.00000000
     atom    4 type  1   force =    -0.00004721   -0.00007047    0.00000000
     atom    5 type  1   force =    -0.00001740   -0.00007527    0.00000000
     atom    6 type  1   force =     0.00007859   -0.00001403    0.00000000
     atom    7 type  1   force =     0.00004245    0.00001501    0.00000000
     atom    8 type  1   force =     0.00002576    0.00001610    0.00000000
     atom    9 type  1   force =     0.00005062    0.00009264    0.00000000
     atom   10 type  1   force =     0.00009367    0.00005683    0.00000000
     atom   11 type  1   force =     0.00007438   -0.00004539    0.00000000
     atom   12 type  1   force =     0.00005157   -0.00003477    0.00000000
     atom   13 type  1   force =     0.00002976   -0.00000596    0.00000000
     atom   14 type  1   force =     0.00006056   -0.00003592    0.00000000
     atom   15 type  1   force =    -0.00002062    0.00011456    0.00000000
     atom   16 type  1   force =    -0.00004241    0.00003922    0.00000000
     atom   17 type  1   force =     0.00005211    0.00005734    0.00000000
     atom   18 type  1   force =     0.00009918   -0.00001145    0.00000000
     atom   19 type  1   force =     0.00000384   -0.00000453    0.00000000
     atom   20 type  1   force =     0.00005132   -0.00001587    0.00000000
     atom   21 type  1   force =     0.00005363    0.00005853    0.00000000
     atom   22 type  1   force =     0.00002944    0.00011458    0.00000000
     atom   23 type  1   force =    -0.00000377    0.00017728    0.00000000
     atom   24 type  1   force =    -0.00005316    0.00006838    0.00000000
     atom   25 type  4   force =     0.00005524   -0.00002430    0.00000000
     atom   26 type  1   force =     0.00006056   -0.00008888    0.00000000
     atom   27 type  1   force =     0.00007032   -0.00004432    0.00000000
     atom   28 type  1   force =     0.00001575    0.00007996    0.00000000
     atom   29 type  1   force =     0.00002148    0.00012576    0.00000000
     atom   30 type  1   force =     0.00004488    0.00008310    0.00000000
     atom   31 type  1   force =    -0.00006064    0.00003191    0.00000000
     atom   32 type  1   force =    -0.00008734    0.00000843    0.00000000
     atom   33 type  1   force =    -0.00003142   -0.00008739    0.00000000
     atom   34 type  1   force =    -0.00001045   -0.00012659    0.00000000
     atom   35 type  1   force =     0.00000127   -0.00001542    0.00000000
     atom   36 type  1   force =    -0.00012128    0.00008175    0.00000000
     atom   37 type  1   force =    -0.00004859    0.00003154    0.00000000
     atom   38 type  1   force =    -0.00004633   -0.00008450    0.00000000
     atom   39 type  1   force =    -0.00015455   -0.00009550    0.00000000
     atom   40 type  1   force =    -0.00006059   -0.00000716    0.00000000
     atom   41 type  1   force =    -0.00006715   -0.00011195    0.00000000
     atom   42 type  1   force =    -0.00012544   -0.00000373    0.00000000
     atom   43 type  1   force =    -0.00009035    0.00007954    0.00000000
     atom   44 type  1   force =    -0.00010895    0.00007112    0.00000000
     atom   45 type  1   force =    -0.00008263   -0.00009482    0.00000000
     atom   46 type  1   force =    -0.00008225   -0.00009646    0.00000000
     atom   47 type  1   force =    -0.00010847   -0.00005135    0.00000000
     atom   48 type  1   force =     0.00000799   -0.00002736    0.00000000
     atom   49 type  1   force =    -0.00002314   -0.00003174    0.00000000
     atom   50 type  2   force =     0.00004905   -0.00007338    0.00000000
     atom   51 type  2   force =     0.00006276   -0.00006855    0.00000000
     atom   52 type  2   force =     0.00005753    0.00001613    0.00000000
     atom   53 type  2   force =    -0.00000264    0.00000164    0.00000000
     atom   54 type  2   force =    -0.00003418   -0.00006784    0.00000000
     atom   55 type  2   force =    -0.00003497   -0.00003013    0.00000000
     atom   56 type  2   force =    -0.00001527   -0.00001154    0.00000000
     atom   57 type  2   force =    -0.00000176   -0.00005389    0.00000000
     atom   58 type  2   force =     0.00002121   -0.00015520    0.00000000
     atom   59 type  2   force =     0.00010023   -0.00005944    0.00000000
     atom   60 type  2   force =     0.00011356    0.00006216    0.00000000
     atom   61 type  2   force =    -0.00007232    0.00000203    0.00000000
     atom   62 type  2   force =    -0.00003919    0.00001136    0.00000000
     atom   63 type  2   force =     0.00000184    0.00002914    0.00000000
     atom   64 type  2   force =    -0.00001963    0.00006132    0.00000000
     atom   65 type  2   force =    -0.00004027   -0.00000714    0.00000000
     atom   66 type  2   force =    -0.00001225   -0.00002762    0.00000000
     atom   67 type  3   force =     0.00006998   -0.00000497    0.00000000
     atom   68 type  2   force =    -0.00000170    0.00000002    0.00000000
     atom   69 type  2   force =    -0.00003163    0.00005368    0.00000000
     atom   70 type  2   force =     0.00004891    0.00005882    0.00000000
     atom   71 type  2   force =     0.00006578    0.00003530    0.00000000
     atom   72 type  2   force =    -0.00003261    0.00003967    0.00000000
     atom   73 type  2   force =    -0.00011608    0.00006224    0.00000000
     atom   74 type  2   force =    -0.00005403    0.00002874    0.00000000
     atom   75 type  5   force =     0.00004740   -0.00005555    0.00000000
     atom   76 type  2   force =     0.00002138   -0.00012114    0.00000000
     atom   77 type  2   force =     0.00002019    0.00000458    0.00000000
     atom   78 type  2   force =     0.00000282   -0.00004629    0.00000000
     atom   79 type  2   force =     0.00002153    0.00002889    0.00000000
     atom   80 type  2   force =    -0.00005087    0.00002615    0.00000000
     atom   81 type  2   force =    -0.00011565    0.00006731    0.00000000
     atom   82 type  2   force =     0.00001753    0.00003926    0.00000000
     atom   83 type  2   force =     0.00011125   -0.00003439    0.00000000
     atom   84 type  2   force =     0.00003545   -0.00005648    0.00000000
     atom   85 type  2   force =    -0.00004258   -0.00003595    0.00000000
     atom   86 type  2   force =    -0.00002345   -0.00000121    0.00000000
     atom   87 type  2   force =    -0.00002074   -0.00003388    0.00000000
     atom   88 type  2   force =    -0.00004703    0.00001496    0.00000000
     atom   89 type  2   force =    -0.00001249    0.00005790    0.00000000
     atom   90 type  2   force =     0.00013759    0.00008162    0.00000000
     atom   91 type  2   force =     0.00008364   -0.00003458    0.00000000
     atom   92 type  2   force =     0.00006648   -0.00007819    0.00000000
     atom   93 type  2   force =    -0.00001639    0.00003043    0.00000000
     atom   94 type  2   force =     0.00002588    0.00002965    0.00000000
     atom   95 type  2   force =     0.00000194   -0.00005733    0.00000000
     atom   96 type  2   force =    -0.00005813   -0.00000288    0.00000000
     atom   97 type  2   force =     0.00003482    0.00003225    0.00000000
     atom   98 type  2   force =     0.00005945   -0.00003638    0.00000000

     Total force =     0.000859     Total SCF correction =     0.000010


     Computing stress (Cartesian axis) and pressure


     negative rho (up, down):  4.834E-01 1.323E-02
          total   stress  (Ry/bohr**3)                   (kbar)     P=   -0.18
  -0.00000019   0.00000001   0.00000000         -0.03      0.00      0.00
   0.00000001  -0.00000018   0.00000000          0.00     -0.03      0.00
   0.00000000   0.00000000  -0.00000334          0.00      0.00     -0.49


     BFGS Geometry Optimization

     number of scf cycles    =   1
     number of bfgs steps    =   0

     enthalpy new            =   -1940.1989088103 Ry

     new trust radius        =       0.0001852481 bohr
     new conv_thr            =            1.0E-10 Ry

     new unit-cell volume =  36238.68057 a.u.^3 (  5370.01835 Ang^3 )
     density =      0.36303 g/cm^3

CELL_PARAMETERS (alat= 33.23461096)
   1.001059735   0.000223084   0.000000000
  -0.500336672   0.867054724   0.000000000
   0.000000000   0.000000000   1.137203616

ATOMIC_POSITIONS (crystal)
B        0.047242199   0.094637342   0.500000000
B        0.047297882   0.237732740   0.500000000
B        0.047254130   0.380904080   0.500000000
B        0.047173626   0.523748015   0.500000000
B        0.047662823   0.666633749   0.500000000
B        0.047935824   0.809612570   0.500000000
B        0.047717992   0.952282774   0.500000000
B        0.189891036   0.094267899   0.500000000
B        0.189083534   0.236349915   0.500000000
B        0.189966460   0.380646934   0.500000000
B        0.189381414   0.523717830   0.500000000
B        0.189695589   0.666807435   0.500000000
B        0.190386479   0.809613812   0.500000000
B        0.190387660   0.952064372   0.500000000
B        0.333196208   0.094294051   0.500000000
B        0.332567440   0.235895240   0.500000000
B        0.331016590   0.376696949   0.500000000
B        0.332091791   0.525216846   0.500000000
B        0.331933473   0.668066760   0.500000000
B        0.333192758   0.810304701   0.500000000
B        0.333366309   0.952337040   0.500000000
B        0.476246592   0.095129881   0.500000000
B        0.476015761   0.237666364   0.500000000
B        0.474997295   0.379725888   0.500000000
C2       0.477681259   0.522318788   0.500000000
B        0.474783171   0.667908401   0.500000000
B        0.476281929   0.810618691   0.500000000
B        0.476251679   0.952826220   0.500000000
B        0.618975033   0.095304764   0.500000000
B        0.619002961   0.238043149   0.500000000
B        0.619038021   0.380962232   0.500000000
B        0.620274307   0.525002767   0.500000000
B        0.623302905   0.668983065   0.500000000
B        0.619352727   0.810033378   0.500000000
B        0.619095500   0.952745888   0.500000000
B        0.761869470   0.095329534   0.500000000
B        0.761819747   0.238180238   0.500000000
B        0.761956880   0.380997017   0.500000000
B        0.762333590   0.523984148   0.500000000
B        0.764104673   0.667432232   0.500000000
B        0.763650003   0.810916280   0.500000000
B        0.762267190   0.952702461   0.500000000
B        0.904821300   0.095179316   0.500000000
B        0.904670752   0.238130529   0.500000000
B        0.904695164   0.381024625   0.500000000
B        0.904869744   0.523753168   0.500000000
B        0.905705602   0.666803536   0.500000000
B        0.905732260   0.810108957   0.500000000
B        0.905363452   0.952758717   0.500000000
N        0.094943687   0.047158762   0.500000000
N        0.094322345   0.189517294   0.500000000
N        0.094811851   0.333093341   0.500000000
N        0.094455666   0.476036680   0.500000000
N        0.094764104   0.618918228   0.500000000
N        0.095299358   0.761869627   0.500000000
N        0.095325899   0.904673338   0.500000000
N        0.237938394   0.047043716   0.500000000
N        0.237246062   0.189125163   0.500000000
N        0.236292758   0.331230691   0.500000000
N        0.236884288   0.476207376   0.500000000
N        0.236849330   0.619244718   0.500000000
N        0.237881112   0.762118773   0.500000000
N        0.238130162   0.904700240   0.500000000
N        0.381100026   0.047303877   0.500000000
N        0.380875612   0.189202138   0.500000000
N        0.379826466   0.330198270   0.500000000
C1       0.382250240   0.475593009   0.500000000
N        0.379002575   0.620997600   0.500000000
N        0.380755416   0.763150744   0.500000000
N        0.381081958   0.905235703   0.500000000
N        0.523920717   0.047849003   0.500000000
N        0.523860225   0.190449074   0.500000000
N        0.523624998   0.333440920   0.500000000
N        0.523315808   0.476684352   0.500000000
C3       0.524406989   0.617749779   0.500000000
N        0.523792875   0.763116140   0.500000000
N        0.523963652   0.905544331   0.500000000
N        0.666699546   0.047870125   0.500000000
N        0.666612827   0.190559485   0.500000000
N        0.666560694   0.333439331   0.500000000
N        0.666559283   0.476375213   0.500000000
N        0.669802170   0.620173865   0.500000000
N        0.668769827   0.763707760   0.500000000
N        0.666906944   0.905188318   0.500000000
N        0.809618396   0.047808106   0.500000000
N        0.809438355   0.190561135   0.500000000
N        0.809440257   0.333387072   0.500000000
N        0.809550875   0.476139911   0.500000000
N        0.810798011   0.619124700   0.500000000
N        0.810875117   0.762754377   0.500000000
N        0.810482592   0.905677585   0.500000000
N        0.952398481   0.047600451   0.500000000
N        0.952191226   0.190381077   0.500000000
N        0.952129587   0.333300495   0.500000000
N        0.952150805   0.476079537   0.500000000
N        0.952695985   0.618900164   0.500000000
N        0.952955938   0.762061538   0.500000000
N        0.952840322   0.905055583   0.500000000



     Writing output data file C2Cn.save/
     NEW-OLD atomic charge density approx. for the potential
     NEW k-points:
   0.0000000   0.0000000   0.0000000   1.0000000
   0.0000000   0.0000000   0.0000000   1.0000000

     Check: negative core charge=   -0.000006

     negative rho (up, down):  4.834E-01 6.740E-03
     extrapolated charge  390.99631, renormalised to  391.00000

     total cpu time spent up to now is      734.3 secs

     Self-consistent Calculation

     iteration #  1     ecut=    40.00 Ry     beta= 0.70
     CG style diagonalization
     ethr =  1.00E-06,  avg # of iterations =  2.0

     Threshold (ethr) on eigenvalues was too large:
     Diagonalizing with lowered threshold

     CG style diagonalization
     ethr =  6.01E-11,  avg # of iterations = 15.0

     negative rho (up, down):  4.834E-01 1.227E-02

     total cpu time spent up to now is      913.7 secs

     total energy              =   -1940.19891089 Ry
     Harris-Foulkes estimate   =   -1940.29628090 Ry
     estimated scf accuracy    <       0.00000042 Ry

     total magnetization       =     3.00 Bohr mag/cell
     absolute magnetization    =     3.17 Bohr mag/cell

     iteration #  2     ecut=    40.00 Ry     beta= 0.70
     CG style diagonalization
     ethr =  1.08E-10,  avg # of iterations =  4.3

     negative rho (up, down):  4.834E-01 1.254E-02

     total cpu time spent up to now is      953.4 secs

     total energy              =   -1940.19891080 Ry
     Harris-Foulkes estimate   =   -1940.19891147 Ry
     estimated scf accuracy    <       0.00000074 Ry

     total magnetization       =     3.00 Bohr mag/cell
     absolute magnetization    =     3.17 Bohr mag/cell

     iteration #  3     ecut=    40.00 Ry     beta= 0.70
     CG style diagonalization
     ethr =  1.08E-10,  avg # of iterations =  3.5

     negative rho (up, down):  4.834E-01 1.279E-02

     total cpu time spent up to now is      984.0 secs

     total energy              =   -1940.19891028 Ry
     Harris-Foulkes estimate   =   -1940.19891090 Ry
     estimated scf accuracy    <       0.00000006 Ry

     total magnetization       =     3.00 Bohr mag/cell
     absolute magnetization    =     3.17 Bohr mag/cell

     iteration #  4     ecut=    40.00 Ry     beta= 0.70
     CG style diagonalization
     ethr =  1.44E-11,  avg # of iterations =  3.7

     negative rho (up, down):  4.834E-01 1.307E-02

     total cpu time spent up to now is     1017.0 secs

     total energy              =   -1940.19890966 Ry
     Harris-Foulkes estimate   =   -1940.19891029 Ry
     estimated scf accuracy    <       0.00000003 Ry

     total magnetization       =     3.00 Bohr mag/cell
     absolute magnetization    =     3.17 Bohr mag/cell

     iteration #  5     ecut=    40.00 Ry     beta= 0.70
     CG style diagonalization
     ethr =  7.08E-12,  avg # of iterations =  3.3

     negative rho (up, down):  4.834E-01 1.316E-02

     total cpu time spent up to now is     1044.7 secs

     total energy              =   -1940.19890937 Ry
     Harris-Foulkes estimate   =   -1940.19890967 Ry
     estimated scf accuracy    <          1.1E-09 Ry

     total magnetization       =     3.00 Bohr mag/cell
     absolute magnetization    =     3.17 Bohr mag/cell

     iteration #  6     ecut=    40.00 Ry     beta= 0.70
     CG style diagonalization
     ethr =  2.88E-13,  avg # of iterations =  4.0

     negative rho (up, down):  4.834E-01 1.321E-02

     total cpu time spent up to now is     1080.4 secs

     total energy              =   -1940.19890925 Ry
     Harris-Foulkes estimate   =   -1940.19890937 Ry
     estimated scf accuracy    <          8.1E-10 Ry

     total magnetization       =     3.00 Bohr mag/cell
     absolute magnetization    =     3.17 Bohr mag/cell

     iteration #  7     ecut=    40.00 Ry     beta= 0.70
     CG style diagonalization
     ethr =  2.07E-13,  avg # of iterations =  3.5

     negative rho (up, down):  4.834E-01 1.322E-02

     total cpu time spent up to now is     1110.6 secs

     total energy              =   -1940.19890925 Ry
     Harris-Foulkes estimate   =   -1940.19890925 Ry
     estimated scf accuracy    <          1.3E-10 Ry

     total magnetization       =     3.00 Bohr mag/cell
     absolute magnetization    =     3.17 Bohr mag/cell

     iteration #  8     ecut=    40.00 Ry     beta= 0.70
     CG style diagonalization
     ethr =  1.00E-13,  avg # of iterations =  3.1

     negative rho (up, down):  4.834E-01 1.322E-02
 
     Magnetic moment per site:
     atom:    1    charge:    0.8565    magn:   -0.0000    constr:    0.0000
     atom:    2    charge:    0.8511    magn:    0.0014    constr:    0.0000
     atom:    3    charge:    0.8520    magn:    0.0012    constr:    0.0000
     atom:    4    charge:    0.8545    magn:    0.0001    constr:    0.0000
     atom:    5    charge:    0.8570    magn:    0.0006    constr:    0.0000
     atom:    6    charge:    0.8555    magn:    0.0000    constr:    0.0000
     atom:    7    charge:    0.8566    magn:    0.0007    constr:    0.0000
     atom:    8    charge:    0.8555    magn:    0.0006    constr:    0.0000
     atom:    9    charge:    0.8568    magn:    0.0003    constr:    0.0000
     atom:   10    charge:    0.8478    magn:    0.0073    constr:    0.0000
     atom:   11    charge:    0.8526    magn:    0.0006    constr:    0.0000
     atom:   12    charge:    0.8574    magn:    0.0004    constr:    0.0000
     atom:   13    charge:    0.8571    magn:   -0.0000    constr:    0.0000
     atom:   14    charge:    0.8555    magn:    0.0000    constr:    0.0000
     atom:   15    charge:    0.8557    magn:    0.0007    constr:    0.0000
     atom:   16    charge:    0.8605    magn:    0.0037    constr:    0.0000
     atom:   17    charge:    0.8679    magn:    0.0134    constr:    0.0000
     atom:   18    charge:    0.8564    magn:    0.0155    constr:    0.0000
     atom:   19    charge:    0.8639    magn:    0.0032    constr:    0.0000
     atom:   20    charge:    0.8574    magn:    0.0004    constr:    0.0000
     atom:   21    charge:    0.8570    magn:    0.0006    constr:    0.0000
     atom:   22    charge:    0.8522    magn:    0.0001    constr:    0.0000
     atom:   23    charge:    0.8489    magn:    0.0004    constr:    0.0000
     atom:   24    charge:    0.8447    magn:    0.0117    constr:    0.0000
     atom:   25    charge:    1.5930    magn:    0.1963    constr:    0.0000
     atom:   26    charge:    0.8564    magn:    0.0155    constr:    0.0000
     atom:   27    charge:    0.8526    magn:    0.0006    constr:    0.0000
     atom:   28    charge:    0.8545    magn:    0.0001    constr:    0.0000
     atom:   29    charge:    0.8522    magn:    0.0006    constr:    0.0000
     atom:   30    charge:    0.8523    magn:    0.0011    constr:    0.0000
     atom:   31    charge:    0.8509    magn:    0.0054    constr:    0.0000
     atom:   32    charge:    0.8447    magn:    0.0117    constr:    0.0000
     atom:   33    charge:    0.8679    magn:    0.0133    constr:    0.0000
     atom:   34    charge:    0.8478    magn:    0.0073    constr:    0.0000
     atom:   35    charge:    0.8520    magn:    0.0012    constr:    0.0000
     atom:   36    charge:    0.8515    magn:    0.0003    constr:    0.0000
     atom:   37    charge:    0.8508    magn:    0.0003    constr:    0.0000
     atom:   38    charge:    0.8523    magn:    0.0011    constr:    0.0000
     atom:   39    charge:    0.8489    magn:    0.0004    constr:    0.0000
     atom:   40    charge:    0.8605    magn:    0.0037    constr:    0.0000
     atom:   41    charge:    0.8568    magn:    0.0003    constr:    0.0000
     atom:   42    charge:    0.8511    magn:    0.0014    constr:    0.0000
     atom:   43    charge:    0.8515    magn:    0.0006    constr:    0.0000
     atom:   44    charge:    0.8515    magn:    0.0003    constr:    0.0000
     atom:   45    charge:    0.8522    magn:    0.0006    constr:    0.0000
     atom:   46    charge:    0.8522    magn:    0.0001    constr:    0.0000
     atom:   47    charge:    0.8557    magn:    0.0007    constr:    0.0000
     atom:   48    charge:    0.8555    magn:    0.0006    constr:    0.0000
     atom:   49    charge:    0.8566    magn:   -0.0000    constr:    0.0000
     atom:   50    charge:    2.6633    magn:    0.0005    constr:    0.0000
     atom:   51    charge:    2.6636    magn:   -0.0005    constr:    0.0000
     atom:   52    charge:    2.6520    magn:    0.0056    constr:    0.0000
     atom:   53    charge:    2.6626    magn:    0.0008    constr:    0.0000
     atom:   54    charge:    2.6638    magn:    0.0004    constr:    0.0000
     atom:   55    charge:    2.6545    magn:    0.0006    constr:    0.0000
     atom:   56    charge:    2.6576    magn:    0.0002    constr:    0.0000
     atom:   57    charge:    2.6596    magn:    0.0018    constr:    0.0000
     atom:   58    charge:    2.6599    magn:    0.0080    constr:    0.0000
     atom:   59    charge:    2.6533    magn:    0.0203    constr:    0.0000
     atom:   60    charge:    2.6529    magn:    0.0098    constr:    0.0000
     atom:   61    charge:    2.6594    magn:    0.0119    constr:    0.0000
     atom:   62    charge:    2.6553    magn:    0.0053    constr:    0.0000
     atom:   63    charge:    2.6545    magn:    0.0006    constr:    0.0000
     atom:   64    charge:    2.6627    magn:    0.0002    constr:    0.0000
     atom:   65    charge:    2.6628    magn:    0.0032    constr:    0.0000
     atom:   66    charge:    2.6615    magn:    0.0206    constr:    0.0000
     atom:   67    charge:    1.7661    magn:    0.1873    constr:    0.0000
     atom:   68    charge:    2.6510    magn:    0.0690    constr:    0.0000
     atom:   69    charge:    2.6594    magn:    0.0119    constr:    0.0000
     atom:   70    charge:    2.6638    magn:    0.0004    constr:    0.0000
     atom:   71    charge:    2.6629    magn:    0.0002    constr:    0.0000
     atom:   72    charge:    2.6578    magn:    0.0000    constr:    0.0000
     atom:   73    charge:    2.6526    magn:    0.0088    constr:    0.0000
     atom:   74    charge:    2.6253    magn:    0.0855    constr:    0.0000
     atom:   75    charge:    1.7661    magn:    0.1873    constr:    0.0000
     atom:   76    charge:    2.6529    magn:    0.0098    constr:    0.0000
     atom:   77    charge:    2.6626    magn:    0.0008    constr:    0.0000
     atom:   78    charge:    2.6605    magn:    0.0002    constr:    0.0000
     atom:   79    charge:    2.6572    magn:    0.0000    constr:    0.0000
     atom:   80    charge:    2.6497    magn:    0.0034    constr:    0.0000
     atom:   81    charge:    2.6526    magn:    0.0088    constr:    0.0000
     atom:   82    charge:    2.6615    magn:    0.0206    constr:    0.0000
     atom:   83    charge:    2.6533    magn:    0.0203    constr:    0.0000
     atom:   84    charge:    2.6519    magn:    0.0056    constr:    0.0000
     atom:   85    charge:    2.6595    magn:    0.0003    constr:    0.0000
     atom:   86    charge:    2.6586    magn:    0.0000    constr:    0.0000
     atom:   87    charge:    2.6572    magn:    0.0000    constr:    0.0000
     atom:   88    charge:    2.6578    magn:    0.0000    constr:    0.0000
     atom:   89    charge:    2.6628    magn:    0.0032    constr:    0.0000
     atom:   90    charge:    2.6599    magn:    0.0080    constr:    0.0000
     atom:   91    charge:    2.6636    magn:   -0.0005    constr:    0.0000
     atom:   92    charge:    2.6642    magn:   -0.0001    constr:    0.0000
     atom:   93    charge:    2.6595    magn:    0.0003    constr:    0.0000
     atom:   94    charge:    2.6605    magn:    0.0002    constr:    0.0000
     atom:   95    charge:    2.6629    magn:    0.0002    constr:    0.0000
     atom:   96    charge:    2.6627    magn:    0.0002    constr:    0.0000
     atom:   97    charge:    2.6596    magn:    0.0018    constr:    0.0000
     atom:   98    charge:    2.6633    magn:    0.0005    constr:    0.0000

     total cpu time spent up to now is     1136.0 secs

     End of self-consistent calculation

 ------ SPIN UP ------------


          k = 0.0000 0.0000 0.0000 ( 77483 PWs)   bands (ev):

   -21.8549 -21.6352 -21.3797 -21.3720 -21.3556 -21.2947 -21.2778 -20.8793
   -20.6471 -20.6351 -20.6138 -20.5377 -20.5327 -20.4141 -20.2816 -20.2798
   -20.2641 -20.1243 -20.1111 -19.5887 -19.4041 -19.3896 -19.3810 -19.3777
   -19.3680 -19.3592 -19.3580 -19.3170 -19.3083 -19.1630 -19.1491 -19.0265
   -18.9610 -18.9578 -18.9359 -18.7654 -18.7603 -18.5390 -18.5323 -18.5128
   -18.5123 -18.4570 -18.4187 -18.3832 -18.3534 -18.3315 -18.3288 -16.9461
   -15.1104 -13.2217 -12.7672 -12.7647 -12.7356 -12.7064 -12.6995 -12.6423
   -12.5507 -12.5200 -12.5134 -12.4890 -12.4098 -12.1469 -12.0554 -12.0505
   -12.0141 -11.9837 -11.9426 -11.5648 -11.4197 -11.4085 -11.3812 -11.3805
   -11.3545 -11.3544 -11.3495 -11.3126 -11.2986 -11.1014 -11.0603 -10.8686
   -10.7104 -10.6957 -10.6676 -10.6551 -10.5123 -10.0688 -10.0284 -10.0035
    -9.9334  -9.8801  -9.8204  -9.3929  -9.3537  -9.3147  -9.3104  -9.2777
    -9.2662  -9.2148  -9.0556  -8.9947  -8.9496  -8.9091  -8.8981  -8.8893
    -8.8863  -8.8796  -8.8706  -8.8475  -8.8179  -8.8168  -8.8123  -8.8121
    -8.7964  -8.7908  -8.7903  -8.7566  -8.7516  -8.7283  -8.6636  -8.6420
    -8.4706  -8.4676  -8.2033  -8.1794  -8.1766  -8.1099  -8.0831  -8.0109
    -7.8787  -7.8232  -7.8228  -7.7960  -7.7506  -7.7296  -7.5614  -7.5074
    -7.4901  -7.4677  -7.4585  -7.4371  -7.4213  -7.3890  -7.3859  -7.3399
    -7.3375  -7.3352  -7.3266  -7.2805  -7.2731  -7.2309  -7.2230  -7.0411
    -7.0194  -6.9872  -6.9160  -6.8246  -6.6626  -6.5665  -6.3155  -6.1876
    -6.1778  -6.1436  -6.0821  -6.0782  -6.0698  -6.0578  -6.0542  -6.0489
    -6.0368  -6.0313  -6.0218  -5.9971  -5.9381  -5.8334  -5.8230  -5.7333
    -5.5430  -5.4449  -5.4395  -5.4354  -5.3897  -5.2932  -5.1809  -5.1464
    -4.8019  -4.7907  -4.7707  -4.7536  -4.7177  -4.6705  -4.5685  -4.5143
    -4.5104  -4.4901  -4.4884  -3.8075  -0.2887   0.1785   0.6626   0.6703
     0.7070   0.7220   0.7246   0.7324   0.7921   0.7940   0.8078   0.8141
     0.8192   0.8319   0.8387   0.8487   0.8701   0.8864   0.9101   0.9145
     0.9369   1.1100   1.1923   1.2138   1.2296   1.2477   1.2891   1.3205
     1.3261   1.3306   1.3401   1.3512   1.3787   1.4358   1.4383   1.4421
     1.4487   1.4563   1.4732   1.8822   2.0374   2.0950   2.0997   2.1109
     2.1110   2.1233   2.1301   2.2062   2.2376

 ------ SPIN DOWN ----------


          k = 0.0000 0.0000 0.0000 ( 77483 PWs)   bands (ev):

   -21.7533 -21.5404 -21.3746 -21.3650 -21.3499 -21.2768 -21.2247 -20.8200
   -20.6373 -20.6168 -20.6011 -20.5272 -20.5124 -20.3984 -20.2675 -20.2638
   -20.2401 -20.0890 -20.0747 -19.5435 -19.3946 -19.3790 -19.3747 -19.3689
   -19.3588 -19.3516 -19.3383 -19.2909 -19.2862 -19.1384 -19.1357 -19.0110
[...]
     atom:   55    charge:    2.6545    magn:    0.0006    constr:    0.0000
     atom:   56    charge:    2.6575    magn:    0.0002    constr:    0.0000
     atom:   57    charge:    2.6596    magn:    0.0019    constr:    0.0000
     atom:   58    charge:    2.6600    magn:    0.0080    constr:    0.0000
     atom:   59    charge:    2.6534    magn:    0.0203    constr:    0.0000
     atom:   60    charge:    2.6530    magn:    0.0098    constr:    0.0000
     atom:   61    charge:    2.6595    magn:    0.0119    constr:    0.0000
     atom:   62    charge:    2.6553    magn:    0.0053    constr:    0.0000
     atom:   63    charge:    2.6545    magn:    0.0006    constr:    0.0000
     atom:   64    charge:    2.6627    magn:    0.0002    constr:    0.0000
     atom:   65    charge:    2.6628    magn:    0.0032    constr:    0.0000
     atom:   66    charge:    2.6616    magn:    0.0206    constr:    0.0000
     atom:   67    charge:    1.7662    magn:    0.1873    constr:    0.0000
     atom:   68    charge:    2.6511    magn:    0.0691    constr:    0.0000
     atom:   69    charge:    2.6595    magn:    0.0119    constr:    0.0000
     atom:   70    charge:    2.6638    magn:    0.0004    constr:    0.0000
     atom:   71    charge:    2.6629    magn:    0.0002    constr:    0.0000
     atom:   72    charge:    2.6578    magn:    0.0000    constr:    0.0000
     atom:   73    charge:    2.6528    magn:    0.0088    constr:    0.0000
     atom:   74    charge:    2.6254    magn:    0.0855    constr:    0.0000
     atom:   75    charge:    1.7663    magn:    0.1873    constr:    0.0000
     atom:   76    charge:    2.6530    magn:    0.0098    constr:    0.0000
     atom:   77    charge:    2.6626    magn:    0.0008    constr:    0.0000
     atom:   78    charge:    2.6605    magn:    0.0002    constr:    0.0000
     atom:   79    charge:    2.6572    magn:    0.0000    constr:    0.0000
     atom:   80    charge:    2.6499    magn:    0.0034    constr:    0.0000
     atom:   81    charge:    2.6528    magn:    0.0088    constr:    0.0000
     atom:   82    charge:    2.6616    magn:    0.0206    constr:    0.0000
     atom:   83    charge:    2.6534    magn:    0.0203    constr:    0.0000
     atom:   84    charge:    2.6519    magn:    0.0056    constr:    0.0000
     atom:   85    charge:    2.6595    magn:    0.0003    constr:    0.0000
     atom:   86    charge:    2.6587    magn:    0.0000    constr:    0.0000
     atom:   87    charge:    2.6572    magn:    0.0000    constr:    0.0000
     atom:   88    charge:    2.6578    magn:    0.0000    constr:    0.0000
     atom:   89    charge:    2.6628    magn:    0.0032    constr:    0.0000
     atom:   90    charge:    2.6600    magn:    0.0080    constr:    0.0000
     atom:   91    charge:    2.6637    magn:   -0.0005    constr:    0.0000
     atom:   92    charge:    2.6642    magn:   -0.0001    constr:    0.0000
     atom:   93    charge:    2.6595    magn:    0.0003    constr:    0.0000
     atom:   94    charge:    2.6605    magn:    0.0002    constr:    0.0000
     atom:   95    charge:    2.6629    magn:    0.0002    constr:    0.0000
     atom:   96    charge:    2.6627    magn:    0.0002    constr:    0.0000
     atom:   97    charge:    2.6596    magn:    0.0019    constr:    0.0000
     atom:   98    charge:    2.6633    magn:    0.0005    constr:    0.0000

     total cpu time spent up to now is     4773.7 secs

     End of self-consistent calculation

 ------ SPIN UP ------------


          k = 0.0000 0.0000 0.0000 ( 77483 PWs)   bands (ev):

   -21.8560 -21.6355 -21.3798 -21.3720 -21.3553 -21.2948 -21.2779 -20.8796
   -20.6472 -20.6352 -20.6138 -20.5377 -20.5326 -20.4140 -20.2817 -20.2799
   -20.2642 -20.1245 -20.1111 -19.5890 -19.4043 -19.3897 -19.3809 -19.3776
   -19.3679 -19.3591 -19.3579 -19.3170 -19.3083 -19.1632 -19.1492 -19.0262
   -18.9609 -18.9578 -18.9360 -18.7655 -18.7603 -18.5390 -18.5322 -18.5127
   -18.5123 -18.4568 -18.4186 -18.3829 -18.3532 -18.3317 -18.3289 -16.9468
   -15.1109 -13.2222 -12.7673 -12.7648 -12.7355 -12.7063 -12.6994 -12.6421
   -12.5507 -12.5200 -12.5136 -12.4889 -12.4099 -12.1471 -12.0554 -12.0505
   -12.0141 -11.9838 -11.9426 -11.5647 -11.4197 -11.4085 -11.3813 -11.3805
   -11.3544 -11.3544 -11.3495 -11.3126 -11.2986 -11.1014 -11.0604 -10.8686
   -10.7104 -10.6957 -10.6675 -10.6550 -10.5123 -10.0688 -10.0283 -10.0034
    -9.9334  -9.8801  -9.8204  -9.3931  -9.3540  -9.3147  -9.3104  -9.2778
    -9.2661  -9.2146  -9.0555  -8.9953  -8.9497  -8.9091  -8.8980  -8.8891
    -8.8860  -8.8793  -8.8705  -8.8473  -8.8179  -8.8167  -8.8124  -8.8121
    -8.7962  -8.7909  -8.7902  -8.7566  -8.7518  -8.7284  -8.6636  -8.6422
    -8.4705  -8.4677  -8.2033  -8.1792  -8.1763  -8.1099  -8.0831  -8.0111
    -7.8785  -7.8233  -7.8229  -7.7960  -7.7507  -7.7296  -7.5613  -7.5073
    -7.4900  -7.4676  -7.4584  -7.4370  -7.4213  -7.3890  -7.3859  -7.3399
    -7.3376  -7.3351  -7.3266  -7.2802  -7.2732  -7.2309  -7.2231  -7.0410
    -7.0194  -6.9871  -6.9158  -6.8244  -6.6625  -6.5661  -6.3158  -6.1874
    -6.1776  -6.1437  -6.0823  -6.0783  -6.0700  -6.0576  -6.0540  -6.0488
    -6.0368  -6.0312  -6.0218  -5.9970  -5.9382  -5.8335  -5.8231  -5.7331
    -5.5428  -5.4449  -5.4396  -5.4354  -5.3896  -5.2932  -5.1808  -5.1464
    -4.8020  -4.7906  -4.7706  -4.7534  -4.7176  -4.6704  -4.5682  -4.5141
    -4.5103  -4.4902  -4.4886  -3.8074  -0.2881   0.1796   0.6627   0.6706
     0.7084   0.7223   0.7249   0.7325   0.7935   0.7941   0.8093   0.8154
     0.8201   0.8333   0.8391   0.8497   0.8703   0.8872   0.9099   0.9147
     0.9367   1.1103   1.1927   1.2140   1.2299   1.2477   1.2891   1.3222
     1.3279   1.3316   1.3417   1.3525   1.3799   1.4380   1.4402   1.4434
     1.4503   1.4578   1.4745   1.8836   2.0375   2.0965   2.1038   2.1143
     2.1306   2.2622   2.2977   2.3272   2.3458

 ------ SPIN DOWN ----------


          k = 0.0000 0.0000 0.0000 ( 77483 PWs)   bands (ev):

   -21.7538 -21.5411 -21.3745 -21.3650 -21.3496 -21.2769 -21.2250 -20.8203
   -20.6374 -20.6169 -20.6011 -20.5272 -20.5123 -20.3983 -20.2676 -20.2638
   -20.2401 -20.0890 -20.0749 -19.5438 -19.3948 -19.3791 -19.3746 -19.3688
   -19.3586 -19.3514 -19.3382 -19.2909 -19.2863 -19.1386 -19.1358 -19.0108
   -18.9492 -18.9488 -18.9099 -18.7447 -18.7313 -18.5255 -18.5195 -18.4992
   -18.4908 -18.4469 -18.3966 -18.3750 -18.3437 -18.3222 -18.3088 -16.3988
   -14.5987 -13.0443 -12.7561 -12.7489 -12.7281 -12.6992 -12.6931 -12.6271
   -12.5399 -12.5072 -12.4996 -12.4495 -12.3854 -12.1252 -12.0430 -12.0361
   -12.0028 -11.9593 -11.9148 -11.5202 -11.3948 -11.3840 -11.3734 -11.3631
   -11.3499 -11.3420 -11.3409 -11.2896 -11.2668 -11.0315 -11.0067 -10.8436
   -10.7016 -10.6905 -10.6527 -10.6208 -10.4782 -10.0449 -10.0053  -9.9848
    -9.9025  -9.8415  -9.7858  -9.3742  -9.2963  -9.2821  -9.2785  -9.2667
    -9.2591  -9.2052  -9.0291  -8.9255  -8.8926  -8.8920  -8.8829  -8.8727
    -8.8645  -8.8623  -8.8347  -8.8273  -8.8054  -8.8052  -8.8052  -8.7877
    -8.7822  -8.7801  -8.7786  -8.7042  -8.6973  -8.6253  -8.6002  -8.5390
    -8.4444  -8.4090  -8.1997  -8.1732  -8.1730  -8.0603  -8.0536  -7.8487
    -7.8237  -7.8002  -7.7752  -7.7646  -7.6842  -7.6401  -7.5347  -7.4926
    -7.4784  -7.4526  -7.4328  -7.4182  -7.3804  -7.3796  -7.3702  -7.3272
    -7.3028  -7.2965  -7.2727  -7.2637  -7.2019  -7.1358  -7.0691  -7.0142
    -7.0108  -6.9809  -6.8342  -6.7627  -6.6219  -6.5198  -6.1744  -6.1642
    -6.1391  -6.1292  -6.0561  -6.0429  -6.0352  -6.0305  -6.0288  -6.0231
    -6.0116  -5.9926  -5.9479  -5.9408  -5.7942  -5.7502  -5.7435  -5.6865
    -5.4775  -5.4200  -5.4071  -5.3853  -5.1892  -5.1763  -5.0733  -5.0052
    -4.7554  -4.7435  -4.7247  -4.7192  -4.6384  -4.6072  -4.5297  -4.4850
    -4.4696  -4.4626  -3.8180  -2.6918   0.1894   0.5393   0.7133   0.7252
     0.7368   0.7545   0.7699   0.7748   0.7932   0.8112   0.8156   0.8218
     0.8317   0.8384   0.8608   0.8746   0.9070   0.9410   0.9420   0.9701
     1.0455   1.1945   1.2541   1.2832   1.2888   1.3222   1.3264   1.3313
     1.3420   1.3457   1.3491   1.3863   1.4110   1.4358   1.4376   1.4412
     1.4485   1.4566   1.4852   1.8892   2.1024   2.1058   2.1149   2.1229
     2.1453   2.1590   2.2144   2.2264   2.3390

     highest occupied, lowest unoccupied level (ev):    -0.2881   -3.8180

!    total energy              =   -1940.19887764 Ry
     Harris-Foulkes estimate   =   -1940.19887765 Ry
     estimated scf accuracy    <          8.8E-13 Ry

     total all-electron energy =     -7770.023354 Ry

     The total energy is the sum of the following terms:

     one-electron contribution =  -10643.38565418 Ry
     hartree contribution      =    5407.46661938 Ry
     xc contribution           =    -430.72469789 Ry
     ewald contribution        =    4369.89002919 Ry
     DFT-D3 Dispersion         =      -0.27011583 Ry
     one-center paw contrib.   =    -643.17505830 Ry

     total magnetization       =     3.00 Bohr mag/cell
     absolute magnetization    =     3.17 Bohr mag/cell

     convergence has been achieved in  22 iterations

     negative rho (up, down):  4.825E-01 1.330E-02

     Forces acting on atoms (cartesian axes, Ry/au):

     atom    1 type  1   force =    -0.00001184   -0.00001077    0.00000000
     atom    2 type  1   force =     0.00000717   -0.00003018    0.00000000
     atom    3 type  1   force =     0.00000355   -0.00001693    0.00000000
     atom    4 type  1   force =     0.00002901   -0.00002004    0.00000000
     atom    5 type  1   force =     0.00002589   -0.00000395    0.00000000
     atom    6 type  1   force =     0.00002255   -0.00000706    0.00000000
     atom    7 type  1   force =     0.00003160   -0.00001052    0.00000000
     atom    8 type  1   force =     0.00003285    0.00000506    0.00000000
     atom    9 type  1   force =     0.00000632   -0.00002265    0.00000000
     atom   10 type  1   force =     0.00000998   -0.00002063    0.00000000
     atom   11 type  1   force =     0.00000966   -0.00000294    0.00000000
     atom   12 type  1   force =     0.00002431    0.00000802    0.00000000
     atom   13 type  1   force =     0.00002568   -0.00001302    0.00000000
     atom   14 type  1   force =     0.00001903   -0.00001221    0.00000000
     atom   15 type  1   force =     0.00001649   -0.00001684    0.00000000
     atom   16 type  1   force =    -0.00000339    0.00000446    0.00000000
     atom   17 type  1   force =    -0.00001383   -0.00004341    0.00000000
     atom   18 type  1   force =    -0.00002183    0.00002181    0.00000000
     atom   19 type  1   force =    -0.00000773    0.00000479    0.00000000
     atom   20 type  1   force =     0.00000529   -0.00002324    0.00000000
     atom   21 type  1   force =     0.00001663   -0.00002109    0.00000000
     atom   22 type  1   force =     0.00002992    0.00001091    0.00000000
     atom   23 type  1   force =     0.00000972   -0.00000373    0.00000000
     atom   24 type  1   force =    -0.00002016   -0.00003930    0.00000000
     atom   25 type  4   force =    -0.00000702    0.00000525    0.00000000
     atom   26 type  1   force =    -0.00003117    0.00000668    0.00000000
     atom   27 type  1   force =     0.00000428   -0.00000766    0.00000000
     atom   28 type  1   force =     0.00002795   -0.00001562    0.00000000
     atom   29 type  1   force =     0.00001671    0.00003042    0.00000000
     atom   30 type  1   force =    -0.00001694    0.00001646    0.00000000
     atom   31 type  1   force =    -0.00000564    0.00000429    0.00000000
     atom   32 type  1   force =     0.00002529    0.00003559    0.00000000
     atom   33 type  1   force =     0.00003106    0.00002798    0.00000000
     atom   34 type  1   force =     0.00001970   -0.00000288    0.00000000
     atom   35 type  1   force =     0.00001048    0.00000604    0.00000000
     atom   36 type  1   force =     0.00000446    0.00001583    0.00000000
     atom   37 type  1   force =     0.00000474   -0.00000155    0.00000000
     atom   38 type  1   force =    -0.00002160    0.00000722    0.00000000
     atom   39 type  1   force =     0.00000836   -0.00000833    0.00000000
     atom   40 type  1   force =    -0.00000524   -0.00000585    0.00000000
     atom   41 type  1   force =     0.00002155   -0.00000009    0.00000000
     atom   42 type  1   force =     0.00002705    0.00001332    0.00000000
     atom   43 type  1   force =    -0.00000247    0.00000838    0.00000000
     atom   44 type  1   force =    -0.00000580   -0.00001002    0.00000000
     atom   45 type  1   force =    -0.00001442   -0.00003237    0.00000000
     atom   46 type  1   force =     0.00000456   -0.00003361    0.00000000
     atom   47 type  1   force =     0.00002219   -0.00000918    0.00000000
     atom   48 type  1   force =     0.00001532   -0.00003120    0.00000000
     atom   49 type  1   force =     0.00000976    0.00002755    0.00000000
     atom   50 type  2   force =    -0.00001114   -0.00000936    0.00000000
     atom   51 type  2   force =    -0.00000843   -0.00001772    0.00000000
     atom   52 type  2   force =    -0.00002149   -0.00000938    0.00000000
     atom   53 type  2   force =    -0.00002716    0.00000398    0.00000000
     atom   54 type  2   force =     0.00000259   -0.00000402    0.00000000
     atom   55 type  2   force =     0.00000124   -0.00001108    0.00000000
     atom   56 type  2   force =    -0.00000945    0.00000152    0.00000000
     atom   57 type  2   force =    -0.00000368    0.00000636    0.00000000
     atom   58 type  2   force =    -0.00001222   -0.00000423    0.00000000
     atom   59 type  2   force =    -0.00001655   -0.00001001    0.00000000
     atom   60 type  2   force =    -0.00002442   -0.00000450    0.00000000
     atom   61 type  2   force =    -0.00000368   -0.00000321    0.00000000
     atom   62 type  2   force =     0.00001655   -0.00001107    0.00000000
     atom   63 type  2   force =     0.00000966    0.00000232    0.00000000
     atom   64 type  2   force =    -0.00000596    0.00000444    0.00000000
     atom   65 type  2   force =    -0.00001795   -0.00000340    0.00000000
     atom   66 type  2   force =    -0.00001889   -0.00000154    0.00000000
     atom   67 type  3   force =    -0.00001649   -0.00000255    0.00000000
     atom   68 type  2   force =    -0.00000871    0.00000576    0.00000000
     atom   69 type  2   force =     0.00000249    0.00000406    0.00000000
     atom   70 type  2   force =     0.00000643   -0.00000024    0.00000000
     atom   71 type  2   force =    -0.00001431    0.00000088    0.00000000
     atom   72 type  2   force =    -0.00002079   -0.00000316    0.00000000
     atom   73 type  2   force =    -0.00002263   -0.00000339    0.00000000
     atom   74 type  2   force =    -0.00002305    0.00001286    0.00000000
     atom   75 type  5   force =    -0.00000577    0.00001486    0.00000000
     atom   76 type  2   force =    -0.00000492    0.00002593    0.00000000
     atom   77 type  2   force =    -0.00001130    0.00002260    0.00000000
     atom   78 type  2   force =    -0.00000617    0.00000470    0.00000000
     atom   79 type  2   force =    -0.00001531   -0.00000256    0.00000000
     atom   80 type  2   force =    -0.00001500    0.00000743    0.00000000
     atom   81 type  2   force =    -0.00000965    0.00002116    0.00000000
     atom   82 type  2   force =    -0.00000842    0.00002144    0.00000000
     atom   83 type  2   force =     0.00000344    0.00002661    0.00000000
     atom   84 type  2   force =     0.00000249    0.00002479    0.00000000
     atom   85 type  2   force =     0.00000654    0.00000078    0.00000000
     atom   86 type  2   force =    -0.00000870    0.00000129    0.00000000
     atom   87 type  2   force =    -0.00000715    0.00001358    0.00000000
     atom   88 type  2   force =    -0.00000728    0.00002019    0.00000000
     atom   89 type  2   force =    -0.00000620    0.00002175    0.00000000
     atom   90 type  2   force =    -0.00000397    0.00001885    0.00000000
     atom   91 type  2   force =     0.00000865    0.00001413    0.00000000
     atom   92 type  2   force =    -0.00000748   -0.00000570    0.00000000
     atom   93 type  2   force =    -0.00000434   -0.00001282    0.00000000
     atom   94 type  2   force =    -0.00001165    0.00000474    0.00000000
     atom   95 type  2   force =    -0.00000847    0.00001532    0.00000000
     atom   96 type  2   force =    -0.00000583    0.00000542    0.00000000
     atom   97 type  2   force =    -0.00001045    0.00000157    0.00000000
     atom   98 type  2   force =    -0.00000506    0.00000741    0.00000000

     Total force =     0.000219     Total SCF correction =     0.000001


     Computing stress (Cartesian axis) and pressure


     negative rho (up, down):  4.825E-01 1.330E-02
          total   stress  (Ry/bohr**3)                   (kbar)     P=   -0.16
   0.00000003   0.00000000   0.00000000          0.00      0.00      0.00
   0.00000000   0.00000003   0.00000000          0.00      0.00      0.00
   0.00000000   0.00000000  -0.00000335          0.00      0.00     -0.49


     Writing output data file C2Cn.save/
 
     init_run     :      9.56s CPU     10.05s WALL (       2 calls)
     electrons    :   4544.50s CPU   4597.67s WALL (       9 calls)
     update_pot   :     24.20s CPU     24.39s WALL (       7 calls)
     forces       :     34.83s CPU     35.98s WALL (       9 calls)
     stress       :    109.26s CPU    110.24s WALL (       9 calls)

     Called by init_run:
     wfcinit      :      3.78s CPU      4.02s WALL (       2 calls)
     potinit      :      1.97s CPU      2.01s WALL (       2 calls)
     hinit0       :      2.84s CPU      2.90s WALL (       2 calls)

     Called by electrons:
     c_bands      :   4409.69s CPU   4453.76s WALL (     115 calls)
     sum_band     :     70.67s CPU     74.33s WALL (     115 calls)
     v_of_rho     :     22.21s CPU     22.80s WALL (     117 calls)
     newd         :      7.59s CPU     10.07s WALL (     117 calls)
     PAW_pot      :     25.16s CPU     25.50s WALL (     124 calls)
     mix_rho      :      1.86s CPU      2.21s WALL (     115 calls)

     Called by c_bands:
     init_us_2    :      4.38s CPU      4.56s WALL (     514 calls)
     rcgdiagg     :   4280.35s CPU   4320.88s WALL (     252 calls)
     wfcrot       :    129.00s CPU    132.10s WALL (     224 calls)

     Called by sum_band:
     sum_band:bec :      0.19s CPU      0.19s WALL (     244 calls)
     addusdens    :      8.43s CPU     11.08s WALL (     115 calls)

     Called by *cgdiagg:
     h_psi        :   2205.23s CPU   2227.16s WALL (  188824 calls)
     s_psi        :   1264.31s CPU   1276.51s WALL (  377424 calls)
     rdiaghg      :      4.28s CPU      4.47s WALL (     224 calls)

     Called by h_psi:
     h_psi:pot    :   2202.81s CPU   2224.70s WALL (  188824 calls)
     h_psi:calbec :    783.39s CPU    790.66s WALL (  188824 calls)
     vloc_psi     :    751.15s CPU    760.92s WALL (  188824 calls)
     add_vuspsi   :    665.84s CPU    671.23s WALL (  188824 calls)
     hs_1psi      :   2734.40s CPU   2760.35s WALL (  188600 calls)
     s_1psi       :   1293.57s CPU   1305.06s WALL (  188600 calls)

     General routines
     calbec       :   1458.69s CPU   1473.29s WALL (  377758 calls)
     fft          :     18.33s CPU     18.65s WALL (    2289 calls)
     ffts         :      0.99s CPU      1.01s WALL (     230 calls)
     fftw         :    710.95s CPU    720.04s WALL (  461178 calls)
 
     Parallel routines
     fft_scatt_xy :     68.17s CPU     68.86s WALL (  463697 calls)
     fft_scatt_yz :    202.55s CPU    205.91s WALL (  463697 calls)
 
     PWSCF        :      1h18m CPU      1h19m WALL

 
   This run was terminated on:   2:44:31   9Jun2021            

=------------------------------------------------------------------------------=
   JOB DONE.
=------------------------------------------------------------------------------=
