
     Program PWSCF v.6.4.1 starts on  5Jun2021 at 16:55: 0 

     This program is part of the open-source Quantum ESPRESSO suite
     for quantum simulation of materials; please cite
         "P. Giannozzi et al., J. Phys.:Condens. Matter 21 395502 (2009);
         "P. Giannozzi et al., J. Phys.:Condens. Matter 29 465901 (2017);
          URL http://www.quantum-espresso.org", 
     in publications or presentations arising from this work. More details at
     http://www.quantum-espresso.org/quote

     Parallel version (MPI), running on    16 processors

     MPI processes distributed on     1 nodes
     R & G space division:  proc/nbgrp/npool/nimage =      16
     Waiting for input...
     Reading input from standard input

     Current dimensions of program PWSCF are:
     Max number of different atomic species (ntypx) = 10
     Max number of k-points (npk) =  40000
     Max angular momentum in pseudopotentials (lmaxx) =  3
               file N.pbe-n-kjpaw_psl.1.0.0.UPF: wavefunction(s)  2S renormalized

     --------------------------------------------
     Parameters for DFT-D3 Dispersion Correction:
     --------------------------------------------
       Reference C6 values for interpolation: 

         atom   Coordination number   C6
         B          0.000           214.36
         B          0.971           150.74
         B          1.944           106.23
         B          2.913            62.89
         B          4.586            56.06
         N          0.000            50.54
         N          0.994            44.25
         N          2.014            39.35
         N          2.990            31.16

       Values used:

         atom   Coordination number  R0_AB[au]  C6      C8
         B          3.323            3.039     62.90   2506.31
         B          3.323            3.039     62.90   2506.30
         B          3.323            3.039     62.90   2506.30
         B          3.323            3.039     62.90   2506.31
         B          3.323            3.039     62.90   2506.30
         B          3.323            3.039     62.90   2506.30
         B          3.323            3.039     62.90   2506.31
         B          3.323            3.039     62.90   2506.30
         B          3.323            3.039     62.90   2506.30
         B          3.323            3.039     62.90   2506.30
         B          3.323            3.039     62.90   2506.30
         B          3.323            3.039     62.90   2506.30
         B          3.323            3.039     62.90   2506.30
         B          3.323            3.039     62.90   2506.30
         B          3.323            3.039     62.90   2506.30
         B          3.323            3.039     62.90   2506.30
         B          3.323            3.039     62.90   2506.30
         B          3.323            3.039     62.90   2506.30
         B          3.323            3.039     62.90   2506.30
         B          3.323            3.039     62.90   2506.30
         B          3.323            3.039     62.90   2506.30
         B          3.323            3.039     62.90   2506.30
         B          3.323            3.039     62.90   2506.30
         B          3.323            3.039     62.90   2506.30
         B          3.323            3.039     62.90   2506.31
         B          3.323            3.039     62.90   2506.30
         B          3.323            3.039     62.90   2506.30
         B          3.323            3.039     62.90   2506.31
         B          3.323            3.039     62.90   2506.30
         B          3.323            3.039     62.90   2506.30
         B          3.323            3.039     62.90   2506.30
         B          3.323            3.039     62.90   2506.30
         B          3.323            3.039     62.90   2506.30
         B          3.323            3.039     62.90   2506.30
         B          3.323            3.039     62.90   2506.30
         B          3.323            3.039     62.90   2506.30
         B          3.323            3.039     62.90   2506.30
         B          3.323            3.039     62.90   2506.30
         B          3.323            3.039     62.90   2506.30
         B          3.323            3.039     62.90   2506.30
         B          3.323            3.039     62.90   2506.30
         B          3.323            3.039     62.90   2506.30
         B          3.323            3.039     62.90   2506.30
         B          3.323            3.039     62.90   2506.30
         B          3.323            3.039     62.90   2506.30
         B          3.323            3.039     62.90   2506.30
         B          3.323            3.039     62.90   2506.30
         B          3.323            3.039     62.90   2506.30
         B          3.323            3.039     62.90   2506.31
         N          3.129            2.478     31.22    688.75
         N          3.129            2.478     31.22    688.75
         N          3.129            2.478     31.22    688.75
         N          3.129            2.478     31.22    688.75
         N          3.129            2.478     31.22    688.75
         N          3.129            2.478     31.22    688.75
         N          3.129            2.478     31.22    688.75
         N          3.129            2.478     31.22    688.75
         N          3.129            2.478     31.22    688.75
         N          3.129            2.478     31.22    688.75
         N          3.129            2.478     31.22    688.75
         N          3.129            2.478     31.22    688.75
         N          3.129            2.478     31.22    688.75
         N          3.129            2.478     31.22    688.75
         N          3.129            2.478     31.22    688.75
         N          3.129            2.478     31.22    688.75
         N          3.129            2.478     31.22    688.75
         N          3.129            2.478     31.22    688.75
         N          3.129            2.478     31.22    688.75
         N          3.129            2.478     31.22    688.75
         N          3.129            2.478     31.22    688.75
         N          3.129            2.478     31.22    688.75
         N          3.129            2.478     31.22    688.75
         N          3.129            2.478     31.22    688.75
         N          3.129            2.478     31.22    688.75
         N          3.129            2.478     31.22    688.75
         N          3.129            2.478     31.22    688.75
         N          3.129            2.478     31.22    688.75
         N          3.129            2.478     31.22    688.75
         N          3.129            2.478     31.22    688.75
         N          3.129            2.478     31.22    688.75
         N          3.129            2.478     31.22    688.75
         N          3.129            2.478     31.22    688.75
         N          3.129            2.478     31.22    688.75
         N          3.129            2.478     31.22    688.75
         N          3.129            2.478     31.22    688.75
         N          3.129            2.478     31.22    688.75
         N          3.129            2.478     31.22    688.75
         N          3.129            2.478     31.22    688.75
         N          3.129            2.478     31.22    688.75
         N          3.129            2.478     31.22    688.75
         N          3.129            2.478     31.22    688.75
         N          3.129            2.478     31.22    688.75
         N          3.129            2.478     31.22    688.75
         N          3.129            2.478     31.22    688.75
         N          3.129            2.478     31.22    688.75
         N          3.129            2.478     31.22    688.75
         N          3.129            2.478     31.22    688.75
         N          3.129            2.478     31.22    688.75

         Molecular C6 ( Ry / a.u.^6 ) =    434808.31


     gamma-point specific algorithms are used

     Subspace diagonalization in iterative solution of the eigenvalue problem:
     one sub-group per band group will be used
     scalapack distributed-memory algorithm (size of sub-group:  2*  2 procs)

     Found symmetry operation: I + ( -0.0000 -0.4286  0.0000)
     This is a supercell, fractional translations are disabled
     Message from routine setup:
     DEPRECATED: symmetry with ibrav=0, use correct ibrav instead
 
     Parallelization info
     --------------------
     sticks:   dense  smooth     PW     G-vecs:    dense   smooth      PW
     Min        2376     758    189               426036    77111    9633
     Max        2378     760    192               426044    77116    9640
     Sum       38023   12145   3049              6816635  1233813  154157
 


     bravais-lattice index     =            0
     lattice parameter (alat)  =      33.2346  a.u.
     unit-cell volume          =   36105.5185 (a.u.)^3
     number of atoms/cell      =           98
     number of atomic types    =            2
     number of electrons       =       392.00
     number of Kohn-Sham states=          196
     kinetic-energy cutoff     =      40.0000  Ry
     charge density cutoff     =     500.0000  Ry
     convergence threshold     =      1.0E-06
     mixing beta               =       0.7000
     number of iterations used =            8  plain     mixing
     Exchange-correlation      = SLA PW PBX PBC ( 1  4  3  4 0 0)
     Using LIBXC version       =    4   3   4
     nstep                     =           50


     celldm(1)=  33.234611  celldm(2)=   0.000000  celldm(3)=   0.000000
     celldm(4)=   0.000000  celldm(5)=   0.000000  celldm(6)=   0.000000

     crystal axes: (cart. coord. in units of alat)
               a(1) = (   0.999347   0.000000   0.000000 )  
               a(2) = (  -0.499674   0.865460   0.000000 )  
               a(3) = (   0.000000   0.000000   1.137204 )  

     reciprocal axes: (cart. coord. in units 2 pi/alat)
               b(1) = (  1.000653  0.577727  0.000000 )  
               b(2) = (  0.000000  1.155455  0.000000 )  
               b(3) = (  0.000000  0.000000  0.879350 )  


     PseudoPot. # 1 for B  read from file:
     ./pseudo/B.pbe-n-kjpaw_psl.1.0.0.UPF
     MD5 check sum: 8c825a5969375aca5c2c6ad5945b3059
     Pseudo is Projector augmented-wave + core cor, Zval =  3.0
     Generated using "atomic" code by A. Dal Corso v.6.3
     Shape of augmentation charge: PSQ
     Using radial grid of 1059 points,  4 beta functions with: 
                l(1) =   0
                l(2) =   0
                l(3) =   1
                l(4) =   1
     Q(r) pseudized with 0 coefficients 


     PseudoPot. # 2 for N  read from file:
     ./pseudo/N.pbe-n-kjpaw_psl.1.0.0.UPF
     MD5 check sum: 14c48229446f9f2d411169a3abcbc3fa
     Pseudo is Projector augmented-wave + core cor, Zval =  5.0
     Generated using "atomic" code by A. Dal Corso v.6.3
     Shape of augmentation charge: PSQ
     Using radial grid of 1085 points,  4 beta functions with: 
                l(1) =   0
                l(2) =   0
                l(3) =   1
                l(4) =   1
     Q(r) pseudized with 0 coefficients 


     atomic species   valence    mass     pseudopotential
        B              3.00    10.00000     B ( 1.00)
        N              5.00    14.00000     N ( 1.00)

     12 Sym. Ops. (no inversion) found



   Cartesian axes

     site n.     atom                  positions (alat units)
         1           B   tau(   1) = (   0.0000000   0.0824312   0.5686018  )
         2           B   tau(   2) = (  -0.0713835   0.2060646   0.5686018  )
         3           B   tau(   3) = (  -0.1427591   0.3296940   0.5686018  )
         4           B   tau(   4) = (  -0.2141425   0.4533388   0.5686018  )
         5           B   tau(   5) = (  -0.2855298   0.5769802   0.5686018  )
         6           B   tau(   6) = (  -0.3569083   0.7006080   0.5686018  )
         7           B   tau(   7) = (  -0.4282861   0.8242446   0.5686018  )
         8           B   tau(   8) = (   0.1427708   0.0824288   0.5686018  )
         9           B   tau(   9) = (   0.0713835   0.2060646   0.5686018  )
        10           B   tau(  10) = (  -0.0000000   0.3296987   0.5686018  )
        11           B   tau(  11) = (  -0.0713761   0.4533390   0.5686018  )
        12           B   tau(  12) = (  -0.1427591   0.5769780   0.5686018  )
        13           B   tau(  13) = (  -0.2141463   0.7006109   0.5686018  )
        14           B   tau(  14) = (  -0.2855248   0.8242478   0.5686018  )
        15           B   tau(  15) = (   0.2855246   0.0824274   0.5686018  )
        16           B   tau(  16) = (   0.2141465   0.2060579   0.5686018  )
        17           B   tau(  17) = (   0.1427591   0.3296940   0.5686018  )
        18           B   tau(  18) = (   0.0713751   0.4533390   0.5686018  )
        19           B   tau(  19) = (  -0.0000005   0.5769737   0.5686018  )
        20           B   tau(  20) = (  -0.0713835   0.7006042   0.5686018  )
        21           B   tau(  21) = (  -0.1427707   0.8242461   0.5686018  )
        22           B   tau(  22) = (   0.4282860   0.0824302   0.5686018  )
        23           B   tau(  23) = (   0.3569076   0.2060607   0.5686018  )
        24           B   tau(  24) = (   0.2855296   0.3296914   0.5686018  )
        25           B   tau(  25) = (   0.2141415   0.4533388   0.5686018  )
        26           B   tau(  26) = (   0.1427581   0.5769780   0.5686018  )
        27           B   tau(  27) = (   0.0713825   0.7006042   0.5686018  )
        28           B   tau(  28) = (  -0.0000005   0.8242437   0.5686018  )
        29           B   tau(  29) = (   0.5710614   0.0824302   0.5686018  )
        30           B   tau(  30) = (   0.4996742   0.2060657   0.5686018  )
        31           B   tau(  31) = (   0.4282957   0.3296968   0.5686018  )
        32           B   tau(  32) = (   0.3569173   0.4533385   0.5686018  )
        33           B   tau(  33) = (   0.2855298   0.5769802   0.5686018  )
        34           B   tau(  34) = (   0.2141463   0.7006109   0.5686018  )
        35           B   tau(  35) = (   0.1427707   0.8242461   0.5686018  )
        36           B   tau(  36) = (   0.7138228   0.0824274   0.5686018  )
        37           B   tau(  37) = (   0.6424397   0.2060607   0.5686018  )
        38           B   tau(  38) = (   0.5710526   0.3296968   0.5686018  )
        39           B   tau(  39) = (   0.4996737   0.4533387   0.5686018  )
        40           B   tau(  40) = (   0.4282956   0.5769750   0.5686018  )
        41           B   tau(  41) = (   0.3569083   0.7006080   0.5686018  )
        42           B   tau(  42) = (   0.2855248   0.8242478   0.5686018  )
        43           B   tau(  43) = (   0.8565765   0.0824288   0.5686018  )
        44           B   tau(  44) = (   0.7852008   0.2060579   0.5686018  )
        45           B   tau(  45) = (   0.7138177   0.3296914   0.5686018  )
        46           B   tau(  46) = (   0.6424300   0.4533385   0.5686018  )
        47           B   tau(  47) = (   0.5710518   0.5769750   0.5686018  )
        48           B   tau(  48) = (   0.4996737   0.7006027   0.5686018  )
        49           B   tau(  49) = (   0.4282861   0.8242446   0.5686018  )
        50           N   tau(  50) = (   0.0713879   0.0412158   0.5686018  )
        51           N   tau(  51) = (   0.0000000   0.1648579   0.5686018  )
        52           N   tau(  52) = (  -0.0713780   0.2884850   0.5686018  )
        53           N   tau(  53) = (  -0.1427560   0.4121215   0.5686018  )
        54           N   tau(  54) = (  -0.2141439   0.5357691   0.5686018  )
        55           N   tau(  55) = (  -0.2855274   0.6594025   0.5686018  )
        56           N   tau(  56) = (  -0.3569025   0.7830312   0.5686018  )
        57           N   tau(  57) = (   0.2141491   0.0412128   0.5686018  )
        58           N   tau(  58) = (   0.1427659   0.1648522   0.5686018  )
        59           N   tau(  59) = (   0.0713780   0.2884850   0.5686018  )
        60           N   tau(  60) = (   0.0000000   0.4121216   0.5686018  )
        61           N   tau(  61) = (  -0.0713785   0.5357636   0.5686018  )
        62           N   tau(  62) = (  -0.1427659   0.6593994   0.5686018  )
        63           N   tau(  63) = (  -0.2141494   0.7830329   0.5686018  )
        64           N   tau(  64) = (   0.3569023   0.0412143   0.5686018  )
        65           N   tau(  65) = (   0.2855270   0.1648491   0.5686018  )
        66           N   tau(  66) = (   0.2141438   0.2884793   0.5686018  )
        67           N   tau(  67) = (   0.1427560   0.4121215   0.5686018  )
        68           N   tau(  68) = (   0.0713775   0.5357636   0.5686018  )
        69           N   tau(  69) = (  -0.0000005   0.6593940   0.5686018  )
        70           N   tau(  70) = (  -0.0713879   0.7830297   0.5686018  )
        71           N   tau(  71) = (   0.4996742   0.0412166   0.5686018  )
        72           N   tau(  72) = (   0.4282907   0.1648561   0.5686018  )
        73           N   tau(  73) = (   0.3569154   0.2884817   0.5686018  )
        74           N   tau(  74) = (   0.2855322   0.4121213   0.5686018  )
        75           N   tau(  75) = (   0.2141439   0.5357691   0.5686018  )
        76           N   tau(  76) = (   0.1427659   0.6593994   0.5686018  )
        77           N   tau(  77) = (   0.0713879   0.7830297   0.5686018  )
        78           N   tau(  78) = (   0.6424450   0.0412143   0.5686018  )
        79           N   tau(  79) = (   0.5710577   0.1648561   0.5686018  )
        80           N   tau(  80) = (   0.4996742   0.2884864   0.5686018  )
        81           N   tau(  81) = (   0.4282989   0.4121215   0.5686018  )
        82           N   tau(  82) = (   0.3569152   0.5357666   0.5686018  )
        83           N   tau(  83) = (   0.2855274   0.6594025   0.5686018  )
        84           N   tau(  84) = (   0.2141494   0.7830329   0.5686018  )
        85           N   tau(  85) = (   0.7851982   0.0412128   0.5686018  )
        86           N   tau(  86) = (   0.7138203   0.1648491   0.5686018  )
        87           N   tau(  87) = (   0.6424329   0.2884817   0.5686018  )
        88           N   tau(  88) = (   0.5710494   0.4121215   0.5686018  )
        89           N   tau(  89) = (   0.4996737   0.5357620   0.5686018  )
        90           N   tau(  90) = (   0.4282904   0.6593952   0.5686018  )
        91           N   tau(  91) = (   0.3569025   0.7830312   0.5686018  )
        92           N   tau(  92) = (   0.9279594   0.0412158   0.5686018  )
        93           N   tau(  93) = (   0.8565814   0.1648522   0.5686018  )
        94           N   tau(  94) = (   0.7852035   0.2884793   0.5686018  )
        95           N   tau(  95) = (   0.7138161   0.4121213   0.5686018  )
        96           N   tau(  96) = (   0.6424322   0.5357666   0.5686018  )
        97           N   tau(  97) = (   0.5710569   0.6593952   0.5686018  )
        98           N   tau(  98) = (   0.4996737   0.7830285   0.5686018  )

     number of k points=     1
                       cart. coord. in units 2pi/alat
        k(    1) = (   0.0000000   0.0000000   0.0000000), wk =   2.0000000

     Dense  grid:  3408318 G-vectors     FFT dimensions: ( 240, 240, 270)

     Smooth grid:   616907 G-vectors     FFT dimensions: ( 135, 135, 160)

     Estimated max dynamical RAM per process >       1.30 GB

     Estimated total dynamical RAM >      20.85 GB

     Initial potential from superposition of free atoms

     starting charge  391.98580, renormalised to  392.00000

     negative rho (up, down):  4.265E-03 0.000E+00
     Starting wfcs are  392 randomized atomic wfcs
     Checking if some PAW data can be deallocated... 

     total cpu time spent up to now is       34.9 secs

     Self-consistent Calculation

     iteration #  1     ecut=    40.00 Ry     beta= 0.70
     CG style diagonalization
     ethr =  1.00E-02,  avg # of iterations =  3.0

     negative rho (up, down):  4.367E-03 0.000E+00

     total cpu time spent up to now is       85.8 secs

     total energy              =   -1946.38148694 Ry
     Harris-Foulkes estimate   =   -1960.09849318 Ry
     estimated scf accuracy    <      20.28545680 Ry

     iteration #  2     ecut=    40.00 Ry     beta= 0.70
     CG style diagonalization
     ethr =  5.17E-03,  avg # of iterations =  4.2

     negative rho (up, down):  1.639E-02 0.000E+00

     total cpu time spent up to now is      140.0 secs

     total energy              =   -1951.15545898 Ry
     Harris-Foulkes estimate   =   -1957.10906595 Ry
     estimated scf accuracy    <      11.57014866 Ry

     iteration #  3     ecut=    40.00 Ry     beta= 0.70
     CG style diagonalization
     ethr =  2.95E-03,  avg # of iterations =  4.0

     negative rho (up, down):  7.814E-03 0.000E+00

     total cpu time spent up to now is      191.4 secs

     total energy              =   -1953.47340956 Ry
     Harris-Foulkes estimate   =   -1953.49319858 Ry
     estimated scf accuracy    <       0.08725822 Ry

     iteration #  4     ecut=    40.00 Ry     beta= 0.70
     CG style diagonalization
     ethr =  2.23E-05,  avg # of iterations =  4.5

     negative rho (up, down):  9.383E-03 0.000E+00

     total cpu time spent up to now is      249.7 secs

     total energy              =   -1953.56955404 Ry
     Harris-Foulkes estimate   =   -1953.58079841 Ry
     estimated scf accuracy    <       0.04635197 Ry

     iteration #  5     ecut=    40.00 Ry     beta= 0.70
     CG style diagonalization
     ethr =  1.18E-05,  avg # of iterations =  3.0

     negative rho (up, down):  7.934E-03 0.000E+00

     total cpu time spent up to now is      288.0 secs

     total energy              =   -1953.55706773 Ry
     Harris-Foulkes estimate   =   -1953.57032700 Ry
     estimated scf accuracy    <       0.02429023 Ry

     iteration #  6     ecut=    40.00 Ry     beta= 0.70
     CG style diagonalization
     ethr =  6.20E-06,  avg # of iterations =  4.2

     negative rho (up, down):  7.788E-03 0.000E+00

     total cpu time spent up to now is      341.8 secs

     total energy              =   -1953.56446676 Ry
     Harris-Foulkes estimate   =   -1953.56724951 Ry
     estimated scf accuracy    <       0.00733028 Ry

     iteration #  7     ecut=    40.00 Ry     beta= 0.70
     CG style diagonalization
     ethr =  1.87E-06,  avg # of iterations =  3.1

     negative rho (up, down):  7.649E-03 0.000E+00

     total cpu time spent up to now is      381.9 secs

     total energy              =   -1953.56439667 Ry
     Harris-Foulkes estimate   =   -1953.56498980 Ry
     estimated scf accuracy    <       0.00128303 Ry

     iteration #  8     ecut=    40.00 Ry     beta= 0.70
     CG style diagonalization
     ethr =  3.27E-07,  avg # of iterations =  4.3

     negative rho (up, down):  7.654E-03 0.000E+00

     total cpu time spent up to now is      438.9 secs

     total energy              =   -1953.56485346 Ry
     Harris-Foulkes estimate   =   -1953.56486392 Ry
     estimated scf accuracy    <       0.00003375 Ry

     iteration #  9     ecut=    40.00 Ry     beta= 0.70
     CG style diagonalization
     ethr =  8.61E-09,  avg # of iterations =  3.2

     negative rho (up, down):  7.673E-03 0.000E+00

     total cpu time spent up to now is      480.6 secs

     total energy              =   -1953.56485321 Ry
     Harris-Foulkes estimate   =   -1953.56485620 Ry
     estimated scf accuracy    <       0.00001140 Ry

     iteration # 10     ecut=    40.00 Ry     beta= 0.70
     CG style diagonalization
     ethr =  2.91E-09,  avg # of iterations =  3.3

     negative rho (up, down):  7.678E-03 0.000E+00

     total cpu time spent up to now is      523.3 secs

     total energy              =   -1953.56485293 Ry
     Harris-Foulkes estimate   =   -1953.56485421 Ry
     estimated scf accuracy    <       0.00000283 Ry

     iteration # 11     ecut=    40.00 Ry     beta= 0.70
     CG style diagonalization
     ethr =  7.22E-10,  avg # of iterations =  4.1

     negative rho (up, down):  7.677E-03 0.000E+00

     total cpu time spent up to now is      577.2 secs

     End of self-consistent calculation

          k = 0.0000 0.0000 0.0000 ( 77079 PWs)   bands (ev):

   -21.7005 -21.3140 -21.3139 -21.3139 -21.3132 -21.3132 -21.3132 -20.5746
   -20.5746 -20.5746 -20.5745 -20.5745 -20.5745 -20.2322 -20.2319 -20.2319
   -20.2312 -20.2311 -20.2308 -19.3071 -19.3071 -19.3071 -19.3070 -19.3070
   -19.3070 -19.3069 -19.3068 -19.3068 -19.3068 -19.3068 -19.3068 -18.9111
   -18.9111 -18.9111 -18.9110 -18.9110 -18.9110 -18.4555 -18.4555 -18.4553
   -18.4553 -18.4547 -18.4547 -18.2914 -18.2914 -18.2913 -18.2913 -18.2912
   -18.2912 -12.6986 -12.6986 -12.6981 -12.6980 -12.6980 -12.6979 -12.4954
   -12.4954 -12.4953 -12.4953 -12.4953 -12.4953 -12.0075 -12.0075 -12.0075
   -12.0074 -12.0074 -12.0074 -11.3101 -11.3101 -11.3100 -11.3100 -11.3100
   -11.3100 -11.3096 -11.3096 -11.3096 -11.3096 -11.3096 -11.3095 -10.6482
   -10.6482 -10.6481 -10.6481 -10.6481 -10.6481  -9.9383  -9.9382  -9.9382
    -9.9380  -9.9380  -9.9379  -9.2818  -9.2356  -9.2356  -9.2356  -9.2356
    -9.2349  -9.2349  -8.8126  -8.8126  -8.8126  -8.8126  -8.8126  -8.8125
    -8.7680  -8.7680  -8.7680  -8.7680  -8.7679  -8.7679  -8.7671  -8.7671
    -8.7671  -8.7671  -8.7670  -8.7670  -8.7608  -8.7608  -8.7608  -8.7602
    -8.7602  -8.7602  -8.0939  -8.0939  -8.0939  -8.0938  -8.0938  -8.0938
    -7.7565  -7.7565  -7.7565  -7.7565  -7.7565  -7.7564  -7.4159  -7.4159
    -7.4159  -7.4159  -7.4159  -7.4159  -7.3099  -7.3098  -7.3098  -7.3097
    -7.3097  -7.3096  -7.2847  -7.2844  -7.2844  -7.2838  -7.2838  -7.2835
    -6.9168  -6.9168  -6.9167  -6.9166  -6.9165  -6.9165  -6.0942  -6.0941
    -6.0940  -6.0937  -6.0936  -6.0936  -5.9842  -5.9842  -5.9842  -5.9842
    -5.9841  -5.9841  -5.9841  -5.9841  -5.9840  -5.9840  -5.9840  -5.9840
    -5.4107  -5.4107  -5.3911  -5.3911  -5.3911  -5.3911  -5.3910  -5.3910
    -4.6937  -4.6936  -4.6934  -4.6933  -4.6931  -4.6931  -4.4490  -4.4490
    -4.4490  -4.4490  -4.4489  -4.4489

     highest occupied level (ev):    -4.4489

!    total energy              =   -1953.56485369 Ry
     Harris-Foulkes estimate   =   -1953.56485370 Ry
     estimated scf accuracy    <       0.00000003 Ry

     total all-electron energy =     -7810.933982 Ry

     The total energy is the sum of the following terms:

     one-electron contribution =  -10743.02984787 Ry
     hartree contribution      =    5458.27264917 Ry
     xc contribution           =    -431.71199369 Ry
     ewald contribution        =    4409.00504121 Ry
     DFT-D3 Dispersion         =      -0.27035605 Ry
     one-center paw contrib.   =    -645.83034647 Ry

     convergence has been achieved in  11 iterations

     negative rho (up, down):  7.677E-03 0.000E+00

     Forces acting on atoms (cartesian axes, Ry/au):

     atom    1 type  1   force =    -0.00000000    0.00009875    0.00000000
     atom    2 type  1   force =    -0.00003586    0.00002990    0.00000000
     atom    3 type  1   force =     0.00005650   -0.00010186   -0.00000000
     atom    4 type  1   force =     0.00003205    0.00001850   -0.00000000
     atom    5 type  1   force =    -0.00005996    0.00009987    0.00000000
     atom    6 type  1   force =     0.00000797   -0.00004600    0.00000000
     atom    7 type  1   force =     0.00008552   -0.00004937    0.00000000
     atom    8 type  1   force =     0.00012299    0.00007101    0.00000000
     atom    9 type  1   force =     0.00003586    0.00002990   -0.00000000
     atom   10 type  1   force =     0.00000000   -0.00003292   -0.00000000
     atom   11 type  1   force =     0.00008769    0.00002068   -0.00000000
     atom   12 type  1   force =     0.00006175    0.00006560    0.00000000
     atom   13 type  1   force =    -0.00002851    0.00001646    0.00000000
     atom   14 type  1   force =     0.00004382    0.00001610    0.00000000
     atom   15 type  1   force =    -0.00005009    0.00006012    0.00000000
     atom   16 type  1   force =     0.00002702   -0.00007344    0.00000000
     atom   17 type  1   force =    -0.00005650   -0.00010186    0.00000000
     atom   18 type  1   force =    -0.00008769    0.00002068    0.00000000
     atom   19 type  1   force =     0.00000000    0.00000000    0.00000000
     atom   20 type  1   force =    -0.00002593   -0.00008628    0.00000000
     atom   21 type  1   force =    -0.00011647    0.00000200    0.00000000
     atom   22 type  1   force =    -0.00009189    0.00010743   -0.00000000
     atom   23 type  1   force =    -0.00002872   -0.00001658    0.00000000
     atom   24 type  1   force =     0.00004709   -0.00013329   -0.00000000
     atom   25 type  1   force =    -0.00003205    0.00001850   -0.00000000
     atom   26 type  1   force =    -0.00006175    0.00006560   -0.00000000
     atom   27 type  1   force =     0.00002593   -0.00008628    0.00000000
     atom   28 type  1   force =     0.00000000   -0.00003701    0.00000000
     atom   29 type  1   force =     0.00009189    0.00010743   -0.00000000
     atom   30 type  1   force =     0.00000000    0.00007405   -0.00000000
     atom   31 type  1   force =     0.00006413   -0.00003702    0.00000000
     atom   32 type  1   force =     0.00013898    0.00002587   -0.00000000
     atom   33 type  1   force =     0.00005996    0.00009987    0.00000000
     atom   34 type  1   force =     0.00002851    0.00001646    0.00000000
     atom   35 type  1   force =     0.00011647    0.00000200    0.00000000
     atom   36 type  1   force =     0.00005009    0.00006012    0.00000000
     atom   37 type  1   force =     0.00002872   -0.00001658    0.00000000
     atom   38 type  1   force =    -0.00006413   -0.00003702   -0.00000000
     atom   39 type  1   force =    -0.00000000    0.00003317    0.00000000
     atom   40 type  1   force =     0.00007712    0.00001332    0.00000000
     atom   41 type  1   force =    -0.00000797   -0.00004600   -0.00000000
     atom   42 type  1   force =    -0.00004382    0.00001610    0.00000000
     atom   43 type  1   force =    -0.00012299    0.00007101    0.00000000
     atom   44 type  1   force =    -0.00002702   -0.00007344    0.00000000
     atom   45 type  1   force =    -0.00004709   -0.00013329    0.00000000
     atom   46 type  1   force =    -0.00013898    0.00002587    0.00000000
     atom   47 type  1   force =    -0.00007712    0.00001332    0.00000000
     atom   48 type  1   force =     0.00000000   -0.00014202   -0.00000000
     atom   49 type  1   force =    -0.00008552   -0.00004937   -0.00000000
     atom   50 type  2   force =    -0.00011593   -0.00006693    0.00000000
     atom   51 type  2   force =     0.00000000   -0.00015387    0.00000000
     atom   52 type  2   force =    -0.00006477    0.00004244   -0.00000000
     atom   53 type  2   force =    -0.00013350    0.00005237    0.00000000
     atom   54 type  2   force =    -0.00002139   -0.00014180   -0.00000000
     atom   55 type  2   force =     0.00000437   -0.00007731   -0.00000000
     atom   56 type  2   force =    -0.00013325    0.00007693    0.00000000
     atom   57 type  2   force =    -0.00006892   -0.00001925    0.00000000
     atom   58 type  2   force =    -0.00005113   -0.00005006    0.00000000
     atom   59 type  2   force =     0.00006477    0.00004244    0.00000000
     atom   60 type  2   force =     0.00000000    0.00004968    0.00000000
     atom   61 type  2   force =    -0.00006830   -0.00003943   -0.00000000
     atom   62 type  2   force =     0.00004302   -0.00002484    0.00000000
     atom   63 type  2   force =     0.00006914    0.00003487    0.00000000
     atom   64 type  2   force =     0.00014045   -0.00005654    0.00000000
     atom   65 type  2   force =     0.00000754    0.00000435   -0.00000000
     atom   66 type  2   force =     0.00002126    0.00014990   -0.00000000
     atom   67 type  2   force =     0.00013350    0.00005237    0.00000000
     atom   68 type  2   force =     0.00006830   -0.00003943    0.00000000
     atom   69 type  2   force =    -0.00000000    0.00007887    0.00000000
     atom   70 type  2   force =     0.00011211    0.00008943   -0.00000000
     atom   71 type  2   force =     0.00000000   -0.00010260    0.00000000
     atom   72 type  2   force =     0.00003051   -0.00013430    0.00000000
     atom   73 type  2   force =    -0.00010105    0.00009357   -0.00000000
     atom   74 type  2   force =    -0.00008885    0.00005130    0.00000000
     atom   75 type  2   force =     0.00002139   -0.00014180    0.00000000
     atom   76 type  2   force =    -0.00004302   -0.00002484    0.00000000
     atom   77 type  2   force =    -0.00011211    0.00008943    0.00000000
     atom   78 type  2   force =    -0.00014045   -0.00005654   -0.00000000
     atom   79 type  2   force =    -0.00003051   -0.00013430   -0.00000000
     atom   80 type  2   force =     0.00000000    0.00000000    0.00000000
     atom   81 type  2   force =    -0.00013156    0.00004073    0.00000000
     atom   82 type  2   force =    -0.00011918   -0.00009336   -0.00000000
     atom   83 type  2   force =    -0.00000437   -0.00007731    0.00000000
     atom   84 type  2   force =    -0.00006914    0.00003487    0.00000000
     atom   85 type  2   force =     0.00006892   -0.00001925    0.00000000
     atom   86 type  2   force =    -0.00000754    0.00000435    0.00000000
     atom   87 type  2   force =     0.00010105    0.00009357    0.00000000
     atom   88 type  2   force =     0.00013156    0.00004073    0.00000000
     atom   89 type  2   force =    -0.00000000   -0.00000871    0.00000000
     atom   90 type  2   force =     0.00001779    0.00006931    0.00000000
     atom   91 type  2   force =     0.00013325    0.00007693    0.00000000
     atom   92 type  2   force =     0.00011593   -0.00006693    0.00000000
     atom   93 type  2   force =     0.00005113   -0.00005006    0.00000000
     atom   94 type  2   force =    -0.00002126    0.00014990   -0.00000000
     atom   95 type  2   force =     0.00008885    0.00005130    0.00000000
     atom   96 type  2   force =     0.00011918   -0.00009336   -0.00000000
     atom   97 type  2   force =    -0.00001779    0.00006931   -0.00000000
     atom   98 type  2   force =     0.00000000    0.00013387   -0.00000000

     Total force =     0.001020     Total SCF correction =     0.000183
     SCF correction compared to forces is large: reduce conv_thr to get better values


     Computing stress (Cartesian axis) and pressure


     negative rho (up, down):  7.677E-03 0.000E+00
          total   stress  (Ry/bohr**3)                   (kbar)     P=   -0.96
  -0.00000015   0.00000000   0.00000000         -0.02      0.00      0.00
   0.00000000  -0.00000015   0.00000000          0.00     -0.02      0.00
   0.00000000   0.00000000  -0.00001927          0.00      0.00     -2.84


     BFGS Geometry Optimization

     number of scf cycles    =   1
     number of bfgs steps    =   0

     enthalpy new            =   -1953.5648536933 Ry

     new trust radius        =       0.0001538650 bohr
     new conv_thr            =       0.0000010000 Ry

     new unit-cell volume =  36105.23900 a.u.^3 (  5350.24435 Ang^3 )
     density =      0.36499 g/cm^3

CELL_PARAMETERS (alat= 33.23461096)
   0.999343475   0.000000000   0.000000000
  -0.499671737   0.865456836   0.000000000
   0.000000000   0.000000000   1.137203616

ATOMIC_POSITIONS (crystal)
B        0.047624487   0.095248973   0.500000000
B        0.047618494   0.238099299   0.500000000
B        0.047620897   0.380942981   0.500000000
B        0.047625094   0.523813047   0.500000000
B        0.047620897   0.666677917   0.500000000
B        0.047618494   0.809519197   0.500000000
B        0.047624487   0.952375513   0.500000000
B        0.190490331   0.095245166   0.500000000
B        0.190480803   0.238099299   0.500000000
B        0.190475356   0.380950712   0.500000000
B        0.190486598   0.523813381   0.500000000
B        0.190486598   0.666674217   0.500000000
B        0.190475356   0.809524644   0.500000000
B        0.190480803   0.952381506   0.500000000
B        0.333331143   0.095243184   0.500000000
B        0.333331143   0.238087959   0.500000000
B        0.333322083   0.380942981   0.500000000
B        0.333325783   0.523813381   0.500000000
B        0.333333000   0.666667000   0.500000000
B        0.333325783   0.809513402   0.500000000
B        0.333322083   0.952379103   0.500000000
B        0.476186970   0.095248110   0.500000000
B        0.476186497   0.238093248   0.500000000
B        0.476186970   0.380938860   0.500000000
B        0.476186953   0.523813047   0.500000000
B        0.476186619   0.666674217   0.500000000
B        0.476186619   0.809513402   0.500000000
B        0.476186953   0.952374906   0.500000000
B        0.619061140   0.095248110   0.500000000
B        0.619051595   0.238102190   0.500000000
B        0.619051595   0.380948405   0.500000000
B        0.619061140   0.523813030   0.500000000
B        0.619057019   0.666677917   0.500000000
B        0.619049288   0.809524644   0.500000000
B        0.619057019   0.952379103   0.500000000
B        0.761912041   0.095243184   0.500000000
B        0.761906752   0.238093248   0.500000000
B        0.761897810   0.380948405   0.500000000
B        0.761906752   0.523813503   0.500000000
B        0.761912041   0.666668857   0.500000000
B        0.761900701   0.809519197   0.500000000
B        0.761900701   0.952381506   0.500000000
B        0.904754834   0.095245166   0.500000000
B        0.904756816   0.238087959   0.500000000
B        0.904751890   0.380938860   0.500000000
B        0.904751890   0.523813030   0.500000000
B        0.904756816   0.666668857   0.500000000
B        0.904754834   0.809509669   0.500000000
B        0.904751027   0.952375513   0.500000000
N        0.095241377   0.047620688   0.500000000
N        0.095240267   0.190480534   0.500000000
N        0.095239811   0.333332778   0.500000000
N        0.095241537   0.476189580   0.500000000
N        0.095241537   0.619051957   0.500000000
N        0.095239811   0.761907032   0.500000000
N        0.095240267   0.904759733   0.500000000
N        0.238096356   0.047618859   0.500000000
N        0.238096356   0.190477498   0.500000000
N        0.238092968   0.333332778   0.500000000
N        0.238094751   0.476189501   0.500000000
N        0.238097392   0.619049196   0.500000000
N        0.238094751   0.761905249   0.500000000
N        0.238092968   0.904760189   0.500000000
N        0.380949289   0.047619339   0.500000000
N        0.380951663   0.190475831   0.500000000
N        0.380949289   0.333329949   0.500000000
N        0.380948043   0.476189580   0.500000000
N        0.380950804   0.619049196   0.500000000
N        0.380950804   0.761902608   0.500000000
N        0.380948043   0.904758463   0.500000000
N        0.523810695   0.047620390   0.500000000
N        0.523810880   0.190479120   0.500000000
N        0.523810880   0.333330760   0.500000000
N        0.523810695   0.476189305   0.500000000
N        0.523810420   0.619051957   0.500000000
N        0.523810499   0.761905249   0.500000000
N        0.523810420   0.904758463   0.500000000
N        0.666670051   0.047619339   0.500000000
N        0.666669240   0.190479120   0.500000000
N        0.666667000   0.333333000   0.500000000
N        0.666669240   0.476189120   0.500000000
N        0.666670051   0.619050711   0.500000000
N        0.666667222   0.761907032   0.500000000
N        0.666667222   0.904760189   0.500000000
N        0.809522502   0.047618859   0.500000000
N        0.809524169   0.190475831   0.500000000
N        0.809520880   0.333330760   0.500000000
N        0.809520880   0.476189120   0.500000000
N        0.809524169   0.619048337   0.500000000
N        0.809522502   0.761903644   0.500000000
N        0.809519466   0.904759733   0.500000000
N        0.952379312   0.047620688   0.500000000
N        0.952381141   0.190477498   0.500000000
N        0.952380661   0.333329949   0.500000000
N        0.952379610   0.476189305   0.500000000
N        0.952380661   0.619050711   0.500000000
N        0.952381141   0.761903644   0.500000000
N        0.952379312   0.904758623   0.500000000



     Writing output data file hBN.save/
     Message from routine punch:
     wavefunctions written to file
     NEW-OLD atomic charge density approx. for the potential

     negative rho (up, down):  7.677E-03 0.000E+00
     extrapolated charge  391.99697, renormalised to  392.00000

     total cpu time spent up to now is      696.0 secs

     Self-consistent Calculation

     iteration #  1     ecut=    40.00 Ry     beta= 0.70
     CG style diagonalization
     ethr =  1.00E-06,  avg # of iterations =  2.0

     Threshold (ethr) on eigenvalues was too large:
     Diagonalizing with lowered threshold

     CG style diagonalization
     ethr =  8.61E-11,  avg # of iterations = 16.1

     negative rho (up, down):  7.678E-03 0.000E+00

     total cpu time spent up to now is      944.5 secs

     total energy              =   -1953.56485319 Ry
     Harris-Foulkes estimate   =   -1953.64549787 Ry
     estimated scf accuracy    <       0.00000100 Ry

     iteration #  2     ecut=    40.00 Ry     beta= 0.70
     CG style diagonalization
     ethr =  2.56E-10,  avg # of iterations =  4.4

     negative rho (up, down):  7.678E-03 0.000E+00

     total cpu time spent up to now is     1003.3 secs

     total energy              =   -1953.56485358 Ry
     Harris-Foulkes estimate   =   -1953.56485412 Ry
     estimated scf accuracy    <       0.00000108 Ry

     iteration #  3     ecut=    40.00 Ry     beta= 0.70
     CG style diagonalization
     ethr =  2.56E-10,  avg # of iterations =  3.7

     negative rho (up, down):  7.677E-03 0.000E+00

     total cpu time spent up to now is     1051.5 secs

     End of self-consistent calculation

          k = 0.0000 0.0000 0.0000 ( 77079 PWs)   bands (ev):

   -21.7006 -21.3142 -21.3142 -21.3142 -21.3131 -21.3131 -21.3131 -20.5746
   -20.5746 -20.5746 -20.5746 -20.5746 -20.5746 -20.2328 -20.2322 -20.2322
   -20.2310 -20.2310 -20.2304 -19.3075 -19.3075 -19.3074 -19.3074 -19.3074
   -19.3074 -19.3065 -19.3065 -19.3065 -19.3065 -19.3065 -19.3065 -18.9111
   -18.9111 -18.9111 -18.9110 -18.9110 -18.9110 -18.4559 -18.4559 -18.4557
   -18.4557 -18.4541 -18.4541 -18.2914 -18.2914 -18.2913 -18.2913 -18.2912
   -18.2912 -12.6990 -12.6990 -12.6982 -12.6981 -12.6976 -12.6976 -12.4954
   -12.4954 -12.4954 -12.4953 -12.4953 -12.4953 -12.0076 -12.0076 -12.0075
   -12.0075 -12.0074 -12.0074 -11.3103 -11.3103 -11.3102 -11.3102 -11.3102
   -11.3102 -11.3095 -11.3095 -11.3094 -11.3094 -11.3094 -11.3094 -10.6482
   -10.6482 -10.6482 -10.6482 -10.6481 -10.6481  -9.9390  -9.9386  -9.9386
    -9.9377  -9.9376  -9.9372  -9.2819  -9.2360  -9.2360  -9.2352  -9.2352
    -9.2350  -9.2350  -8.8126  -8.8126  -8.8126  -8.8126  -8.8126  -8.8126
    -8.7683  -8.7683  -8.7683  -8.7683  -8.7682  -8.7682  -8.7669  -8.7669
    -8.7668  -8.7668  -8.7668  -8.7668  -8.7611  -8.7611  -8.7610  -8.7600
    -8.7600  -8.7600  -8.0940  -8.0939  -8.0939  -8.0938  -8.0938  -8.0938
    -7.7565  -7.7565  -7.7565  -7.7565  -7.7565  -7.7565  -7.4159  -7.4159
    -7.4159  -7.4159  -7.4159  -7.4159  -7.3104  -7.3101  -7.3101  -7.3095
    -7.3094  -7.3091  -7.2851  -7.2846  -7.2846  -7.2836  -7.2836  -7.2831
    -6.9171  -6.9171  -6.9171  -6.9162  -6.9162  -6.9162  -6.0947  -6.0946
    -6.0946  -6.0931  -6.0931  -6.0931  -5.9846  -5.9846  -5.9845  -5.9845
    -5.9845  -5.9845  -5.9838  -5.9838  -5.9837  -5.9837  -5.9837  -5.9837
    -5.4107  -5.4107  -5.3912  -5.3911  -5.3911  -5.3910  -5.3910  -5.3910
    -4.6939  -4.6939  -4.6937  -4.6937  -4.6925  -4.6925  -4.4491  -4.4490
    -4.4490  -4.4490  -4.4489  -4.4489

     highest occupied level (ev):    -4.4489

!    total energy              =   -1953.56485375 Ry
     Harris-Foulkes estimate   =   -1953.56485377 Ry
     estimated scf accuracy    <       0.00000003 Ry

     total all-electron energy =     -7810.933983 Ry

     The total energy is the sum of the following terms:

     one-electron contribution =  -10743.11302902 Ry
     hartree contribution      =    5458.31486205 Ry
     xc contribution           =    -431.71270871 Ry
     ewald contribution        =    4409.04674405 Ry
     DFT-D3 Dispersion         =      -0.27035762 Ry
     one-center paw contrib.   =    -645.83036448 Ry

     convergence has been achieved in   3 iterations

     negative rho (up, down):  7.677E-03 0.000E+00

     Forces acting on atoms (cartesian axes, Ry/au):

     atom    1 type  1   force =     0.00000000   -0.00011438    0.00000000
     atom    2 type  1   force =     0.00004054   -0.00003471    0.00000000
     atom    3 type  1   force =    -0.00006439    0.00011766    0.00000000
     atom    4 type  1   force =    -0.00003615   -0.00002087   -0.00000000
     atom    5 type  1   force =     0.00006970   -0.00011460    0.00000000
     atom    6 type  1   force =    -0.00000979    0.00005246   -0.00000000
     atom    7 type  1   force =    -0.00009906    0.00005719    0.00000000
     atom    8 type  1   force =    -0.00014129   -0.00008158   -0.00000000
     atom    9 type  1   force =    -0.00004054   -0.00003471    0.00000000
     atom   10 type  1   force =    -0.00000000    0.00003655    0.00000000
     atom   11 type  1   force =    -0.00010152   -0.00002360   -0.00000000
     atom   12 type  1   force =    -0.00007120   -0.00007612    0.00000000
     atom   13 type  1   force =     0.00003166   -0.00001828   -0.00000000
     atom   14 type  1   force =    -0.00005033   -0.00001775    0.00000000
     atom   15 type  1   force =     0.00005762   -0.00006893    0.00000000
     atom   16 type  1   force =    -0.00003088    0.00008436   -0.00000000
     atom   17 type  1   force =     0.00006439    0.00011766    0.00000000
     atom   18 type  1   force =     0.00010152   -0.00002360    0.00000000
     atom   19 type  1   force =     0.00000000    0.00000000    0.00000000
     atom   20 type  1   force =     0.00003032    0.00009972    0.00000000
     atom   21 type  1   force =     0.00013409   -0.00000307    0.00000000
     atom   22 type  1   force =     0.00010485   -0.00012452    0.00000000
     atom   23 type  1   force =     0.00003201    0.00001848    0.00000000
     atom   24 type  1   force =    -0.00005541    0.00015306    0.00000000
     atom   25 type  1   force =     0.00003615   -0.00002087    0.00000000
     atom   26 type  1   force =     0.00007120   -0.00007612   -0.00000000
     atom   27 type  1   force =    -0.00003032    0.00009972   -0.00000000
     atom   28 type  1   force =    -0.00000000    0.00004174    0.00000000
     atom   29 type  1   force =    -0.00010485   -0.00012452    0.00000000
     atom   30 type  1   force =     0.00000000   -0.00008476    0.00000000
     atom   31 type  1   force =    -0.00007341    0.00004238    0.00000000
     atom   32 type  1   force =    -0.00016026   -0.00002854   -0.00000000
     atom   33 type  1   force =    -0.00006970   -0.00011460   -0.00000000
     atom   34 type  1   force =    -0.00003166   -0.00001828    0.00000000
     atom   35 type  1   force =    -0.00013409   -0.00000307    0.00000000
     atom   36 type  1   force =    -0.00005762   -0.00006893    0.00000000
     atom   37 type  1   force =    -0.00003201    0.00001848    0.00000000
     atom   38 type  1   force =     0.00007341    0.00004238    0.00000000
     atom   39 type  1   force =     0.00000000   -0.00003696    0.00000000
     atom   40 type  1   force =    -0.00008850   -0.00001543    0.00000000
     atom   41 type  1   force =     0.00000979    0.00005246    0.00000000
     atom   42 type  1   force =     0.00005033   -0.00001775    0.00000000
     atom   43 type  1   force =     0.00014129   -0.00008158    0.00000000
     atom   44 type  1   force =     0.00003088    0.00008436    0.00000000
     atom   45 type  1   force =     0.00005541    0.00015306   -0.00000000
     atom   46 type  1   force =     0.00016026   -0.00002854    0.00000000
     atom   47 type  1   force =     0.00008850   -0.00001543   -0.00000000
     atom   48 type  1   force =    -0.00000000    0.00016315    0.00000000
     atom   49 type  1   force =     0.00009906    0.00005719    0.00000000
     atom   50 type  2   force =     0.00010348    0.00005975    0.00000000
     atom   51 type  2   force =    -0.00000000    0.00013364   -0.00000000
     atom   52 type  2   force =     0.00005197   -0.00003962    0.00000000
     atom   53 type  2   force =     0.00011124   -0.00005010    0.00000000
     atom   54 type  2   force =     0.00001223    0.00012139   -0.00000000
     atom   55 type  2   force =    -0.00000833    0.00006481    0.00000000
     atom   56 type  2   force =     0.00011574   -0.00006682   -0.00000000
     atom   57 type  2   force =     0.00006257    0.00002045    0.00000000
     atom   58 type  2   force =     0.00004899    0.00004396    0.00000000
     atom   59 type  2   force =    -0.00005197   -0.00003962    0.00000000
     atom   60 type  2   force =     0.00000000   -0.00004650    0.00000000
     atom   61 type  2   force =     0.00005651    0.00003263    0.00000000
     atom   62 type  2   force =    -0.00004027    0.00002325   -0.00000000
     atom   63 type  2   force =    -0.00006029   -0.00002520    0.00000000
     atom   64 type  2   force =    -0.00012216    0.00005698    0.00000000
     atom   65 type  2   force =    -0.00000335   -0.00000193    0.00000000
     atom   66 type  2   force =    -0.00001173   -0.00013428    0.00000000
     atom   67 type  2   force =    -0.00011124   -0.00005010    0.00000000
     atom   68 type  2   force =    -0.00005651    0.00003263    0.00000000
     atom   69 type  2   force =     0.00000000   -0.00006526   -0.00000000
     atom   70 type  2   force =    -0.00009901   -0.00007129    0.00000000
     atom   71 type  2   force =    -0.00000000    0.00009867    0.00000000
     atom   72 type  2   force =    -0.00002534    0.00011944   -0.00000000
     atom   73 type  2   force =     0.00009077   -0.00008166    0.00000000
     atom   74 type  2   force =     0.00008545   -0.00004933    0.00000000
     atom   75 type  2   force =    -0.00001223    0.00012139    0.00000000
     atom   76 type  2   force =     0.00004027    0.00002325    0.00000000
     atom   77 type  2   force =     0.00009901   -0.00007129   -0.00000000
     atom   78 type  2   force =     0.00012216    0.00005698   -0.00000000
     atom   79 type  2   force =     0.00002534    0.00011944    0.00000000
     atom   80 type  2   force =     0.00000000    0.00000000    0.00000000
     atom   81 type  2   force =     0.00011611   -0.00003778   -0.00000000
     atom   82 type  2   force =     0.00011042    0.00007730   -0.00000000
     atom   83 type  2   force =     0.00000833    0.00006481   -0.00000000
     atom   84 type  2   force =     0.00006029   -0.00002520    0.00000000
     atom   85 type  2   force =    -0.00006257    0.00002045    0.00000000
     atom   86 type  2   force =     0.00000335   -0.00000193   -0.00000000
     atom   87 type  2   force =    -0.00009077   -0.00008166   -0.00000000
     atom   88 type  2   force =    -0.00011611   -0.00003778    0.00000000
     atom   89 type  2   force =    -0.00000000    0.00000387   -0.00000000
     atom   90 type  2   force =    -0.00001357   -0.00006441   -0.00000000
     atom   91 type  2   force =    -0.00011574   -0.00006682   -0.00000000
     atom   92 type  2   force =    -0.00010348    0.00005975    0.00000000
     atom   93 type  2   force =    -0.00004899    0.00004396    0.00000000
     atom   94 type  2   force =     0.00001173   -0.00013428   -0.00000000
     atom   95 type  2   force =    -0.00008545   -0.00004933    0.00000000
     atom   96 type  2   force =    -0.00011042    0.00007730    0.00000000
     atom   97 type  2   force =     0.00001357   -0.00006441    0.00000000
     atom   98 type  2   force =     0.00000000   -0.00011949    0.00000000

     Total force =     0.001018     Total SCF correction =     0.000157
     SCF correction compared to forces is large: reduce conv_thr to get better values


     Computing stress (Cartesian axis) and pressure


     negative rho (up, down):  7.677E-03 0.000E+00
          total   stress  (Ry/bohr**3)                   (kbar)     P=   -0.96
  -0.00000012   0.00000000  -0.00000000         -0.02      0.00     -0.00
   0.00000000  -0.00000012   0.00000000          0.00     -0.02      0.00
   0.00000000  -0.00000000  -0.00001925          0.00     -0.00     -2.83


     number of scf cycles    =   2
     number of bfgs steps    =   1

     enthalpy old            =   -1953.5648536933 Ry
     enthalpy new            =   -1953.5648537513 Ry

     CASE: enthalpy_new < enthalpy_old

     small trust_radius: resetting bfgs history

     new trust radius        =       0.0001000000 bohr
     new conv_thr            =       0.0000000100 Ry

     new unit-cell volume =  36105.10130 a.u.^3 (  5350.22395 Ang^3 )
     density =      0.36499 g/cm^3

CELL_PARAMETERS (alat= 33.23461096)
   0.999341570   0.000000000   0.000000000
  -0.499670784   0.865455186   0.000000000
   0.000000000   0.000000000   1.137203616

ATOMIC_POSITIONS (crystal)
B        0.047623268   0.095246536   0.500000000
B        0.047618872   0.238098559   0.500000000
B        0.047620962   0.380945488   0.500000000
B        0.047624204   0.523812603   0.500000000
B        0.047620962   0.666675475   0.500000000
B        0.047618872   0.809520315   0.500000000
B        0.047623268   0.952376732   0.500000000
B        0.190486854   0.095243427   0.500000000
B        0.190479685   0.238098559   0.500000000
B        0.190475745   0.380951491   0.500000000
B        0.190484473   0.523812878   0.500000000
B        0.190484473   0.666672595   0.500000000
B        0.190475745   0.809524255   0.500000000
B        0.190479685   0.952381128   0.500000000
B        0.333331472   0.095241716   0.500000000
B        0.333331472   0.238089756   0.500000000
B        0.333324525   0.380945488   0.500000000
B        0.333327405   0.523812878   0.500000000
B        0.333333000   0.666667000   0.500000000
B        0.333327405   0.809515527   0.500000000
B        0.333324525   0.952379038   0.500000000
B        0.476187578   0.095245456   0.500000000
B        0.476187285   0.238093642   0.500000000
B        0.476187578   0.380942122   0.500000000
B        0.476187397   0.523812603   0.500000000
B        0.476187122   0.666672595   0.500000000
B        0.476187122   0.809515527   0.500000000
B        0.476187397   0.952375796   0.500000000
B        0.619057878   0.095245456   0.500000000
B        0.619050692   0.238100384   0.500000000
B        0.619050692   0.380949308   0.500000000
B        0.619057878   0.523812422   0.500000000
B        0.619054512   0.666675475   0.500000000
B        0.619048509   0.809524255   0.500000000
B        0.619054512   0.952379038   0.500000000
B        0.761910244   0.095241716   0.500000000
B        0.761906358   0.238093642   0.500000000
B        0.761899616   0.380949308   0.500000000
B        0.761906358   0.523812715   0.500000000
B        0.761910244   0.666668528   0.500000000
B        0.761901441   0.809520315   0.500000000
B        0.761901441   0.952381128   0.500000000
B        0.904756573   0.095243427   0.500000000
B        0.904758284   0.238089756   0.500000000
B        0.904754544   0.380942122   0.500000000
B        0.904754544   0.523812422   0.500000000
B        0.904758284   0.666668528   0.500000000
B        0.904756573   0.809513146   0.500000000
B        0.904753464   0.952376732   0.500000000
N        0.095243923   0.047621961   0.500000000
N        0.095241691   0.190483382   0.500000000
N        0.095240348   0.333331934   0.500000000
N        0.095243056   0.476188512   0.500000000
N        0.095243056   0.619054544   0.500000000
N        0.095240348   0.761908413   0.500000000
N        0.095241691   0.904758309   0.500000000
N        0.238097729   0.047619295   0.500000000
N        0.238097729   0.190478434   0.500000000
N        0.238091587   0.333331934   0.500000000
N        0.238094255   0.476188510   0.500000000
N        0.238098783   0.619049891   0.500000000
N        0.238094255   0.761905745   0.500000000
N        0.238091587   0.904759652   0.500000000
N        0.380947642   0.047620554   0.500000000
N        0.380951580   0.190475790   0.500000000
N        0.380947642   0.333327088   0.500000000
N        0.380945456   0.476188512   0.500000000
N        0.380950109   0.619049891   0.500000000
N        0.380950109   0.761901217   0.500000000
N        0.380945456   0.904756944   0.500000000
N        0.523811746   0.047622493   0.500000000
N        0.523811685   0.190481665   0.500000000
N        0.523811685   0.333329020   0.500000000
N        0.523811746   0.476188254   0.500000000
N        0.523811488   0.619054544   0.500000000
N        0.523811490   0.761905745   0.500000000
N        0.523811488   0.904756944   0.500000000
N        0.666672912   0.047620554   0.500000000
N        0.666670980   0.190481665   0.500000000
N        0.666667000   0.333333000   0.500000000
N        0.666670980   0.476188315   0.500000000
N        0.666672912   0.619052358   0.500000000
N        0.666668066   0.761908413   0.500000000
N        0.666668066   0.904759652   0.500000000
N        0.809521566   0.047619295   0.500000000
N        0.809524210   0.190475790   0.500000000
N        0.809518335   0.333329020   0.500000000
N        0.809518335   0.476188315   0.500000000
N        0.809524210   0.619048420   0.500000000
N        0.809521566   0.761902271   0.500000000
N        0.809516618   0.904758309   0.500000000
N        0.952378039   0.047621961   0.500000000
N        0.952380705   0.190478434   0.500000000
N        0.952379446   0.333327088   0.500000000
N        0.952377507   0.476188254   0.500000000
N        0.952379446   0.619052358   0.500000000
N        0.952380705   0.761902271   0.500000000
N        0.952378039   0.904756077   0.500000000



     Writing output data file hBN.save/
     Message from routine punch:
     wavefunctions written to file
     NEW-OLD atomic charge density approx. for the potential

     negative rho (up, down):  7.677E-03 0.000E+00
     extrapolated charge  391.99851, renormalised to  392.00000

     total cpu time spent up to now is     1171.7 secs

     Self-consistent Calculation

     iteration #  1     ecut=    40.00 Ry     beta= 0.70
     CG style diagonalization
     ethr =  1.00E-06,  avg # of iterations =  2.0

     Threshold (ethr) on eigenvalues was too large:
     Diagonalizing with lowered threshold

     CG style diagonalization
     ethr =  3.57E-11,  avg # of iterations = 14.4

     negative rho (up, down):  7.678E-03 0.000E+00

     total cpu time spent up to now is     1396.8 secs

     total energy              =   -1953.56485382 Ry
     Harris-Foulkes estimate   =   -1953.60458850 Ry
     estimated scf accuracy    <       0.00000036 Ry

     iteration #  2     ecut=    40.00 Ry     beta= 0.70
     CG style diagonalization
     ethr =  9.11E-11,  avg # of iterations =  4.5

     negative rho (up, down):  7.677E-03 0.000E+00

     total cpu time spent up to now is     1456.1 secs

     total energy              =   -1953.56485395 Ry
     Harris-Foulkes estimate   =   -1953.56485417 Ry
     estimated scf accuracy    <       0.00000046 Ry

     iteration #  3     ecut=    40.00 Ry     beta= 0.70
     CG style diagonalization
     ethr =  9.11E-11,  avg # of iterations =  3.7

     negative rho (up, down):  7.677E-03 0.000E+00

     total cpu time spent up to now is     1505.3 secs

     total energy              =   -1953.56485402 Ry
     Harris-Foulkes estimate   =   -1953.56485402 Ry
     estimated scf accuracy    <       0.00000001 Ry

     iteration #  4     ecut=    40.00 Ry     beta= 0.70
     CG style diagonalization
     ethr =  3.31E-12,  avg # of iterations =  4.2

     negative rho (up, down):  7.677E-03 0.000E+00

     total cpu time spent up to now is     1560.7 secs

     End of self-consistent calculation

          k = 0.0000 0.0000 0.0000 ( 77079 PWs)   bands (ev):

   -21.7007 -21.3142 -21.3142 -21.3142 -21.3134 -21.3134 -21.3134 -20.5748
   -20.5748 -20.5748 -20.5748 -20.5748 -20.5748 -20.2326 -20.2322 -20.2321
   -20.2313 -20.2313 -20.2309 -19.3074 -19.3074 -19.3074 -19.3074 -19.3073
   -19.3073 -19.3069 -19.3069 -19.3069 -19.3069 -19.3069 -19.3069 -18.9113
   -18.9112 -18.9112 -18.9112 -18.9112 -18.9112 -18.4558 -18.4558 -18.4556
   -18.4556 -18.4547 -18.4547 -18.2915 -18.2915 -18.2915 -18.2915 -18.2915
   -18.2914 -12.6989 -12.6989 -12.6983 -12.6983 -12.6980 -12.6980 -12.4955
   -12.4955 -12.4955 -12.4955 -12.4955 -12.4955 -12.0077 -12.0077 -12.0076
   -12.0076 -12.0076 -12.0076 -11.3103 -11.3103 -11.3102 -11.3102 -11.3102
   -11.3102 -11.3097 -11.3097 -11.3097 -11.3097 -11.3097 -11.3097 -10.6483
   -10.6483 -10.6483 -10.6483 -10.6482 -10.6482  -9.9387  -9.9385  -9.9385
    -9.9380  -9.9380  -9.9378  -9.2820  -9.2359  -9.2359  -9.2356  -9.2356
    -9.2351  -9.2351  -8.8127  -8.8127  -8.8127  -8.8127  -8.8127  -8.8127
    -8.7682  -8.7682  -8.7682  -8.7682  -8.7682  -8.7682  -8.7672  -8.7672
    -8.7672  -8.7672  -8.7671  -8.7671  -8.7610  -8.7610  -8.7610  -8.7603
    -8.7603  -8.7603  -8.0941  -8.0941  -8.0941  -8.0940  -8.0940  -8.0940
    -7.7566  -7.7566  -7.7566  -7.7566  -7.7566  -7.7566  -7.4161  -7.4161
    -7.4161  -7.4161  -7.4160  -7.4160  -7.3101  -7.3100  -7.3100  -7.3098
    -7.3098  -7.3097  -7.2849  -7.2846  -7.2846  -7.2839  -7.2839  -7.2835
    -6.9169  -6.9169  -6.9169  -6.9167  -6.9166  -6.9166  -6.0945  -6.0944
    -6.0944  -6.0936  -6.0936  -6.0936  -5.9844  -5.9844  -5.9844  -5.9844
    -5.9844  -5.9844  -5.9841  -5.9841  -5.9841  -5.9841  -5.9841  -5.9841
    -5.4109  -5.4108  -5.3912  -5.3912  -5.3912  -5.3912  -5.3912  -5.3912
    -4.6938  -4.6938  -4.6936  -4.6936  -4.6930  -4.6930  -4.4491  -4.4491
    -4.4491  -4.4491  -4.4491  -4.4490

     highest occupied level (ev):    -4.4490

!    total energy              =   -1953.56485403 Ry
     Harris-Foulkes estimate   =   -1953.56485402 Ry
     estimated scf accuracy    <          2.6E-09 Ry

     total all-electron energy =     -7810.933983 Ry

     The total energy is the sum of the following terms:

     one-electron contribution =  -10743.15677999 Ry
     hartree contribution      =    5458.33912151 Ry
     xc contribution           =    -431.71372277 Ry
     ewald contribution        =    4409.06729083 Ry
     DFT-D3 Dispersion         =      -0.27035839 Ry
     one-center paw contrib.   =    -645.83040521 Ry

     convergence has been achieved in   4 iterations

     negative rho (up, down):  7.677E-03 0.000E+00

     Forces acting on atoms (cartesian axes, Ry/au):

     atom    1 type  1   force =    -0.00000000    0.00002151    0.00000000
     atom    2 type  1   force =    -0.00000801    0.00000598    0.00000000
     atom    3 type  1   force =     0.00000938   -0.00002474    0.00000000
     atom    4 type  1   force =     0.00000304    0.00000176   -0.00000000
     atom    5 type  1   force =    -0.00001674    0.00002049    0.00000000
     atom    6 type  1   force =     0.00000117   -0.00000993    0.00000000
     atom    7 type  1   force =     0.00001863   -0.00001075    0.00000000
     atom    8 type  1   force =     0.00002781    0.00001605    0.00000000
     atom    9 type  1   force =     0.00000801    0.00000598   -0.00000000
     atom   10 type  1   force =     0.00000000   -0.00001001   -0.00000000
     atom   11 type  1   force =     0.00001836    0.00000253    0.00000000
     atom   12 type  1   force =     0.00001137    0.00001464    0.00000000
     atom   13 type  1   force =    -0.00000867    0.00000501    0.00000000
     atom   14 type  1   force =     0.00000918    0.00000395   -0.00000000
     atom   15 type  1   force =    -0.00000952    0.00001560    0.00000000
     atom   16 type  1   force =     0.00000875   -0.00001605   -0.00000000
     atom   17 type  1   force =    -0.00000938   -0.00002474    0.00000000
     atom   18 type  1   force =    -0.00001836    0.00000253    0.00000000
     atom   19 type  1   force =     0.00000000    0.00000000    0.00000000
     atom   20 type  1   force =    -0.00000699   -0.00001717    0.00000000
     atom   21 type  1   force =    -0.00002612    0.00000425    0.00000000
     atom   22 type  1   force =    -0.00002001    0.00002754    0.00000000
     atom   23 type  1   force =    -0.00000406   -0.00000234   -0.00000000
     atom   24 type  1   force =     0.00001385   -0.00003110   -0.00000000
     atom   25 type  1   force =    -0.00000304    0.00000176    0.00000000
     atom   26 type  1   force =    -0.00001137    0.00001464   -0.00000000
     atom   27 type  1   force =     0.00000699   -0.00001717    0.00000000
     atom   28 type  1   force =     0.00000000   -0.00000351    0.00000000
     atom   29 type  1   force =     0.00002001    0.00002754   -0.00000000
     atom   30 type  1   force =    -0.00000000    0.00001795    0.00000000
     atom   31 type  1   force =     0.00001554   -0.00000897    0.00000000
     atom   32 type  1   force =     0.00003386    0.00000356   -0.00000000
     atom   33 type  1   force =     0.00001674    0.00002049   -0.00000000
     atom   34 type  1   force =     0.00000867    0.00000501    0.00000000
     atom   35 type  1   force =     0.00002612    0.00000425    0.00000000
     atom   36 type  1   force =     0.00000952    0.00001560    0.00000000
     atom   37 type  1   force =     0.00000406   -0.00000234   -0.00000000
     atom   38 type  1   force =    -0.00001554   -0.00000897   -0.00000000
     atom   39 type  1   force =    -0.00000000    0.00000469   -0.00000000
     atom   40 type  1   force =     0.00001827    0.00000044   -0.00000000
     atom   41 type  1   force =    -0.00000117   -0.00000993    0.00000000
     atom   42 type  1   force =    -0.00000918    0.00000395    0.00000000
     atom   43 type  1   force =    -0.00002781    0.00001605    0.00000000
     atom   44 type  1   force =    -0.00000875   -0.00001605   -0.00000000
     atom   45 type  1   force =    -0.00001385   -0.00003110   -0.00000000
     atom   46 type  1   force =    -0.00003386    0.00000356   -0.00000000
     atom   47 type  1   force =    -0.00001827    0.00000044    0.00000000
     atom   48 type  1   force =     0.00000000   -0.00003211    0.00000000
     atom   49 type  1   force =    -0.00001863   -0.00001075    0.00000000
     atom   50 type  2   force =    -0.00002930   -0.00001692    0.00000000
     atom   51 type  2   force =     0.00000000   -0.00003718    0.00000000
     atom   52 type  2   force =    -0.00001431    0.00001195    0.00000000
     atom   53 type  2   force =    -0.00002991    0.00001659    0.00000000
     atom   54 type  2   force =    -0.00000059   -0.00003420    0.00000000
     atom   55 type  2   force =     0.00000320   -0.00001837   -0.00000000
     atom   56 type  2   force =    -0.00003220    0.00001859   -0.00000000
     atom   57 type  2   force =    -0.00001647   -0.00000437    0.00000000
     atom   58 type  2   force =    -0.00001202   -0.00001208    0.00000000
     atom   59 type  2   force =     0.00001431    0.00001195   -0.00000000
     atom   60 type  2   force =    -0.00000000    0.00001782    0.00000000
     atom   61 type  2   force =    -0.00001324   -0.00000765   -0.00000000
     atom   62 type  2   force =     0.00001543   -0.00000891   -0.00000000
     atom   63 type  2   force =     0.00001751    0.00000641   -0.00000000
     atom   64 type  2   force =     0.00003375   -0.00001545   -0.00000000
     atom   65 type  2   force =    -0.00000056   -0.00000032    0.00000000
     atom   66 type  2   force =     0.00000350    0.00003696    0.00000000
     atom   67 type  2   force =     0.00002991    0.00001659    0.00000000
     atom   68 type  2   force =     0.00001324   -0.00000765    0.00000000
     atom   69 type  2   force =    -0.00000000    0.00001529    0.00000000
     atom   70 type  2   force =     0.00002932    0.00001761   -0.00000000
     atom   71 type  2   force =     0.00000000   -0.00003031    0.00000000
     atom   72 type  2   force =     0.00000429   -0.00003577    0.00000000
     atom   73 type  2   force =    -0.00002883    0.00002161    0.00000000
     atom   74 type  2   force =    -0.00002625    0.00001516    0.00000000
     atom   75 type  2   force =     0.00000059   -0.00003420    0.00000000
     atom   76 type  2   force =    -0.00001543   -0.00000891    0.00000000
     atom   77 type  2   force =    -0.00002932    0.00001761   -0.00000000
     atom   78 type  2   force =    -0.00003375   -0.00001545   -0.00000000
     atom   79 type  2   force =    -0.00000429   -0.00003577    0.00000000
     atom   80 type  2   force =    -0.00000000   -0.00000000    0.00000000
     atom   81 type  2   force =    -0.00003313    0.00001417    0.00000000
     atom   82 type  2   force =    -0.00003026   -0.00002151   -0.00000000
     atom   83 type  2   force =    -0.00000320   -0.00001837    0.00000000
     atom   84 type  2   force =    -0.00001751    0.00000641    0.00000000
     atom   85 type  2   force =     0.00001647   -0.00000437   -0.00000000
     atom   86 type  2   force =     0.00000056   -0.00000032   -0.00000000
     atom   87 type  2   force =     0.00002883    0.00002161    0.00000000
     atom   88 type  2   force =     0.00003313    0.00001417    0.00000000
     atom   89 type  2   force =    -0.00000000    0.00000065    0.00000000
     atom   90 type  2   force =     0.00000445    0.00001645    0.00000000
     atom   91 type  2   force =     0.00003220    0.00001859    0.00000000
     atom   92 type  2   force =     0.00002930   -0.00001692   -0.00000000
     atom   93 type  2   force =     0.00001202   -0.00001208   -0.00000000
     atom   94 type  2   force =    -0.00000350    0.00003696   -0.00000000
     atom   95 type  2   force =     0.00002625    0.00001516    0.00000000
     atom   96 type  2   force =     0.00003026   -0.00002151   -0.00000000
     atom   97 type  2   force =    -0.00000445    0.00001645    0.00000000
     atom   98 type  2   force =    -0.00000000    0.00003383    0.00000000

     Total force =     0.000246     Total SCF correction =     0.000103
     SCF correction compared to forces is large: reduce conv_thr to get better values


     Computing stress (Cartesian axis) and pressure


     negative rho (up, down):  7.677E-03 0.000E+00
          total   stress  (Ry/bohr**3)                   (kbar)     P=   -0.95
  -0.00000006   0.00000000   0.00000000         -0.01      0.00      0.00
   0.00000000  -0.00000006   0.00000000          0.00     -0.01      0.00
   0.00000000   0.00000000  -0.00001918          0.00      0.00     -2.82


     number of scf cycles    =   3
     number of bfgs steps    =   2

     enthalpy old            =   -1953.5648537513 Ry
     enthalpy new            =   -1953.5648540299 Ry

     CASE: enthalpy_new < enthalpy_old

     Message from routine bfgs:
     history already reset at previous step: stopping
     small trust_radius: resetting bfgs history

     new trust radius        =       0.0000608531 bohr
     new conv_thr            =       0.0000000100 Ry

     new unit-cell volume =  36104.98567 a.u.^3 (  5350.20681 Ang^3 )
     density =      0.36499 g/cm^3

CELL_PARAMETERS (alat= 33.23461096)
   0.999339969   0.000000000   0.000000000
  -0.499669984   0.865453800   0.000000000
   0.000000000   0.000000000   1.137203616

ATOMIC_POSITIONS (crystal)
B        0.047623642   0.095247284   0.500000000
B        0.047618735   0.238098767   0.500000000
B        0.047620814   0.380944628   0.500000000
B        0.047624326   0.523812664   0.500000000
B        0.047620814   0.666676187   0.500000000
B        0.047618735   0.809519969   0.500000000
B        0.047623642   0.952376358   0.500000000
B        0.190487970   0.095243986   0.500000000
B        0.190480031   0.238098767   0.500000000
B        0.190475571   0.380951143   0.500000000
B        0.190485069   0.523812966   0.500000000
B        0.190485069   0.666673104   0.500000000
B        0.190475571   0.809524429   0.500000000
B        0.190480031   0.952381265   0.500000000
B        0.333331456   0.095242258   0.500000000
B        0.333331456   0.238089198   0.500000000
B        0.333323813   0.380944628   0.500000000
B        0.333326896   0.523812966   0.500000000
B        0.333333000   0.666667000   0.500000000
B        0.333326896   0.809514931   0.500000000
B        0.333323813   0.952379186   0.500000000
B        0.476187454   0.095246414   0.500000000
B        0.476187122   0.238093561   0.500000000
B        0.476187454   0.380941040   0.500000000
B        0.476187336   0.523812664   0.500000000
B        0.476187034   0.666673104   0.500000000
B        0.476187034   0.809514931   0.500000000
B        0.476187336   0.952375674   0.500000000
B        0.619058960   0.095246414   0.500000000
B        0.619051004   0.238101008   0.500000000
B        0.619051004   0.380948996   0.500000000
B        0.619058960   0.523812546   0.500000000
B        0.619055372   0.666676187   0.500000000
B        0.619048857   0.809524429   0.500000000
B        0.619055372   0.952379186   0.500000000
B        0.761910802   0.095242258   0.500000000
B        0.761906439   0.238093561   0.500000000
B        0.761898992   0.380948996   0.500000000
B        0.761906439   0.523812878   0.500000000
B        0.761910802   0.666668544   0.500000000
B        0.761901233   0.809519969   0.500000000
B        0.761901233   0.952381265   0.500000000
B        0.904756014   0.095243986   0.500000000
B        0.904757742   0.238089198   0.500000000
B        0.904753586   0.380941040   0.500000000
B        0.904753586   0.523812546   0.500000000
B        0.904757742   0.666668544   0.500000000
B        0.904756014   0.809512030   0.500000000
B        0.904752716   0.952376358   0.500000000
N        0.095242747   0.047621373   0.500000000
N        0.095241045   0.190482089   0.500000000
N        0.095240125   0.333332350   0.500000000
N        0.095242444   0.476189089   0.500000000
N        0.095242444   0.619053355   0.500000000
N        0.095240125   0.761907775   0.500000000
N        0.095241045   0.904758955   0.500000000
N        0.238097157   0.047619143   0.500000000
N        0.238097157   0.190478014   0.500000000
N        0.238092225   0.333332350   0.500000000
N        0.238094565   0.476189130   0.500000000
N        0.238098251   0.619049625   0.500000000
N        0.238094565   0.761905435   0.500000000
N        0.238092225   0.904759875   0.500000000
N        0.380948389   0.047620016   0.500000000
N        0.380951558   0.190475779   0.500000000
N        0.380948389   0.333328373   0.500000000
N        0.380946645   0.476189089   0.500000000
N        0.380950375   0.619049625   0.500000000
N        0.380950375   0.761901749   0.500000000
N        0.380946645   0.904757556   0.500000000
N        0.523811219   0.047621439   0.500000000
N        0.523811192   0.190480421   0.500000000
N        0.523811192   0.333329771   0.500000000
N        0.523811219   0.476188781   0.500000000
N        0.523810911   0.619053355   0.500000000
N        0.523810870   0.761905435   0.500000000
N        0.523810911   0.904757556   0.500000000
N        0.666671627   0.047620016   0.500000000
N        0.666670229   0.190480421   0.500000000
N        0.666667000   0.333333000   0.500000000
N        0.666670229   0.476188808   0.500000000
N        0.666671627   0.619051611   0.500000000
N        0.666667650   0.761907775   0.500000000
N        0.666667650   0.904759875   0.500000000
N        0.809521986   0.047619143   0.500000000
N        0.809524221   0.190475779   0.500000000
N        0.809519579   0.333329771   0.500000000
N        0.809519579   0.476188808   0.500000000
N        0.809524221   0.619048442   0.500000000
N        0.809521986   0.761902843   0.500000000
N        0.809517911   0.904758955   0.500000000
N        0.952378627   0.047621373   0.500000000
N        0.952380857   0.190478014   0.500000000
N        0.952379984   0.333328373   0.500000000
N        0.952378561   0.476188781   0.500000000
N        0.952379984   0.619051611   0.500000000
N        0.952380857   0.761902843   0.500000000
N        0.952378627   0.904757253   0.500000000



     Writing output data file hBN.save/
     Message from routine punch:
     wavefunctions written to file
     NEW-OLD atomic charge density approx. for the potential

     negative rho (up, down):  7.677E-03 0.000E+00
     extrapolated charge  391.99874, renormalised to  392.00000

     total cpu time spent up to now is     1681.6 secs

     Self-consistent Calculation

     iteration #  1     ecut=    40.00 Ry     beta= 0.70
     CG style diagonalization
     ethr =  1.00E-06,  avg # of iterations =  2.0

     Threshold (ethr) on eigenvalues was too large:
     Diagonalizing with lowered threshold

     CG style diagonalization
     ethr =  4.91E-12,  avg # of iterations = 15.3

     negative rho (up, down):  7.678E-03 0.000E+00

     total cpu time spent up to now is     1918.8 secs

     total energy              =   -1953.56485400 Ry
     Harris-Foulkes estimate   =   -1953.59821963 Ry
     estimated scf accuracy    <       0.00000005 Ry

     iteration #  2     ecut=    40.00 Ry     beta= 0.70
     CG style diagonalization
     ethr =  1.24E-11,  avg # of iterations =  4.7

     negative rho (up, down):  7.677E-03 0.000E+00

     total cpu time spent up to now is     1981.9 secs

     total energy              =   -1953.56485403 Ry
     Harris-Foulkes estimate   =   -1953.56485405 Ry
     estimated scf accuracy    <       0.00000006 Ry

     iteration #  3     ecut=    40.00 Ry     beta= 0.70
     CG style diagonalization
     ethr =  1.24E-11,  avg # of iterations =  3.7

     negative rho (up, down):  7.677E-03 0.000E+00

     total cpu time spent up to now is     2030.3 secs

     End of self-consistent calculation

          k = 0.0000 0.0000 0.0000 ( 77079 PWs)   bands (ev):

   -21.7007 -21.3143 -21.3143 -21.3142 -21.3133 -21.3133 -21.3133 -20.5747
   -20.5747 -20.5747 -20.5747 -20.5747 -20.5747 -20.2327 -20.2322 -20.2322
   -20.2312 -20.2312 -20.2307 -19.3074 -19.3074 -19.3074 -19.3074 -19.3074
   -19.3074 -19.3068 -19.3068 -19.3068 -19.3068 -19.3067 -19.3067 -18.9112
   -18.9112 -18.9112 -18.9112 -18.9112 -18.9111 -18.4559 -18.4559 -18.4557
   -18.4557 -18.4544 -18.4544 -18.2915 -18.2915 -18.2914 -18.2914 -18.2914
   -18.2914 -12.6989 -12.6989 -12.6982 -12.6982 -12.6979 -12.6979 -12.4955
   -12.4955 -12.4955 -12.4955 -12.4954 -12.4954 -12.0076 -12.0076 -12.0076
   -12.0076 -12.0076 -12.0076 -11.3103 -11.3103 -11.3102 -11.3102 -11.3102
   -11.3102 -11.3096 -11.3096 -11.3096 -11.3096 -11.3096 -11.3096 -10.6483
   -10.6483 -10.6482 -10.6482 -10.6482 -10.6482  -9.9388  -9.9385  -9.9385
    -9.9379  -9.9379  -9.9376  -9.2820  -9.2359  -9.2359  -9.2355  -9.2355
    -9.2351  -9.2351  -8.8127  -8.8127  -8.8127  -8.8126  -8.8126  -8.8126
    -8.7682  -8.7682  -8.7682  -8.7682  -8.7682  -8.7682  -8.7671  -8.7671
    -8.7670  -8.7670  -8.7670  -8.7670  -8.7611  -8.7611  -8.7611  -8.7602
    -8.7602  -8.7602  -8.0940  -8.0940  -8.0940  -8.0940  -8.0940  -8.0940
    -7.7566  -7.7566  -7.7566  -7.7566  -7.7566  -7.7566  -7.4160  -7.4160
    -7.4160  -7.4160  -7.4160  -7.4160  -7.3102  -7.3100  -7.3100  -7.3097
    -7.3096  -7.3095  -7.2850  -7.2846  -7.2846  -7.2838  -7.2838  -7.2833
    -6.9170  -6.9170  -6.9169  -6.9165  -6.9165  -6.9164  -6.0945  -6.0945
    -6.0945  -6.0934  -6.0934  -6.0934  -5.9845  -5.9845  -5.9845  -5.9845
    -5.9844  -5.9844  -5.9839  -5.9839  -5.9839  -5.9839  -5.9839  -5.9839
    -5.4108  -5.4107  -5.3912  -5.3912  -5.3912  -5.3911  -5.3911  -5.3911
[...]
        90           N   tau(  90) = (   0.4282877   0.6593917   0.5686018  )
        91           N   tau(  91) = (   0.3569027   0.7830271   0.5686018  )
        92           N   tau(  92) = (   0.9279551   0.0412141   0.5686018  )
        93           N   tau(  93) = (   0.8565761   0.1648499   0.5686018  )
        94           N   tau(  94) = (   0.7851972   0.2884803   0.5686018  )
        95           N   tau(  95) = (   0.7138127   0.4121194   0.5686018  )
        96           N   tau(  96) = (   0.6424299   0.5357606   0.5686018  )
        97           N   tau(  97) = (   0.5710523   0.6593917   0.5686018  )
        98           N   tau(  98) = (   0.4996700   0.7830256   0.5686018  )

     number of k points=     1
                       cart. coord. in units 2pi/alat
        k(    1) = (   0.0000000   0.0000000   0.0000000), wk =   2.0000000

     Dense  grid:  3408258 G-vectors     FFT dimensions: ( 240, 240, 270)

     Smooth grid:   616895 G-vectors     FFT dimensions: ( 135, 135, 160)

     Estimated max dynamical RAM per process >       1.31 GB

     Estimated total dynamical RAM >      20.90 GB

     Initial potential from superposition of free atoms

     starting charge  391.98580, renormalised to  392.00000

     negative rho (up, down):  4.265E-03 0.000E+00
     Starting wfcs are  392 randomized atomic wfcs
     Checking if some PAW data can be deallocated... 

     total cpu time spent up to now is     2138.2 secs

     Self-consistent Calculation

     iteration #  1     ecut=    40.00 Ry     beta= 0.70
     CG style diagonalization
     ethr =  1.00E-06,  avg # of iterations = 13.2

     negative rho (up, down):  6.727E-03 0.000E+00

     total cpu time spent up to now is     2316.1 secs

     total energy              =   -1947.01616033 Ry
     Harris-Foulkes estimate   =   -1960.22986794 Ry
     estimated scf accuracy    <      19.60551077 Ry

     iteration #  2     ecut=    40.00 Ry     beta= 0.70
     CG style diagonalization
     ethr =  5.00E-03,  avg # of iterations =  4.1

     negative rho (up, down):  2.092E-02 0.000E+00

     total cpu time spent up to now is     2369.9 secs

     total energy              =   -1951.48797680 Ry
     Harris-Foulkes estimate   =   -1956.58304264 Ry
     estimated scf accuracy    <       9.65425212 Ry

     iteration #  3     ecut=    40.00 Ry     beta= 0.70
     CG style diagonalization
     ethr =  2.46E-03,  avg # of iterations =  4.0

     negative rho (up, down):  8.158E-03 0.000E+00

     total cpu time spent up to now is     2422.2 secs

     total energy              =   -1953.51804443 Ry
     Harris-Foulkes estimate   =   -1953.53288968 Ry
     estimated scf accuracy    <       0.07856735 Ry

     iteration #  4     ecut=    40.00 Ry     beta= 0.70
     CG style diagonalization
     ethr =  2.00E-05,  avg # of iterations =  4.3

     negative rho (up, down):  7.925E-03 0.000E+00

     total cpu time spent up to now is     2479.1 secs

     total energy              =   -1953.56116710 Ry
     Harris-Foulkes estimate   =   -1953.57283152 Ry
     estimated scf accuracy    <       0.02657193 Ry

     iteration #  5     ecut=    40.00 Ry     beta= 0.70
     CG style diagonalization
     ethr =  6.78E-06,  avg # of iterations =  3.7

     negative rho (up, down):  7.859E-03 0.000E+00

     total cpu time spent up to now is     2528.0 secs

     total energy              =   -1953.56441859 Ry
     Harris-Foulkes estimate   =   -1953.56442584 Ry
     estimated scf accuracy    <       0.00130709 Ry

     iteration #  6     ecut=    40.00 Ry     beta= 0.70
     CG style diagonalization
     ethr =  3.33E-07,  avg # of iterations =  4.1

     negative rho (up, down):  7.690E-03 0.000E+00

     total cpu time spent up to now is     2581.9 secs

     total energy              =   -1953.56483494 Ry
     Harris-Foulkes estimate   =   -1953.56493280 Ry
     estimated scf accuracy    <       0.00022680 Ry

     iteration #  7     ecut=    40.00 Ry     beta= 0.70
     CG style diagonalization
     ethr =  5.79E-08,  avg # of iterations =  3.3

     negative rho (up, down):  7.668E-03 0.000E+00

     total cpu time spent up to now is     2624.9 secs

     total energy              =   -1953.56484107 Ry
     Harris-Foulkes estimate   =   -1953.56486021 Ry
     estimated scf accuracy    <       0.00003712 Ry

     iteration #  8     ecut=    40.00 Ry     beta= 0.70
     CG style diagonalization
     ethr =  9.47E-09,  avg # of iterations =  4.1

     negative rho (up, down):  7.676E-03 0.000E+00

     total cpu time spent up to now is     2679.6 secs

     total energy              =   -1953.56485372 Ry
     Harris-Foulkes estimate   =   -1953.56485466 Ry
     estimated scf accuracy    <       0.00000227 Ry

     iteration #  9     ecut=    40.00 Ry     beta= 0.70
     CG style diagonalization
     ethr =  5.80E-10,  avg # of iterations =  3.7

     negative rho (up, down):  7.677E-03 0.000E+00

     total cpu time spent up to now is     2727.3 secs

     total energy              =   -1953.56485401 Ry
     Harris-Foulkes estimate   =   -1953.56485407 Ry
     estimated scf accuracy    <       0.00000027 Ry

     iteration # 10     ecut=    40.00 Ry     beta= 0.70
     CG style diagonalization
     ethr =  6.82E-11,  avg # of iterations =  3.6

     negative rho (up, down):  7.677E-03 0.000E+00

     total cpu time spent up to now is     2775.0 secs

     total energy              =   -1953.56485404 Ry
     Harris-Foulkes estimate   =   -1953.56485405 Ry
     estimated scf accuracy    <       0.00000006 Ry

     iteration # 11     ecut=    40.00 Ry     beta= 0.70
     CG style diagonalization
     ethr =  1.43E-11,  avg # of iterations =  3.4

     negative rho (up, down):  7.677E-03 0.000E+00

     total cpu time spent up to now is     2820.4 secs

     total energy              =   -1953.56485403 Ry
     Harris-Foulkes estimate   =   -1953.56485404 Ry
     estimated scf accuracy    <       0.00000002 Ry

     iteration # 12     ecut=    40.00 Ry     beta= 0.70
     CG style diagonalization
     ethr =  5.99E-12,  avg # of iterations =  4.1

     negative rho (up, down):  7.677E-03 0.000E+00

     total cpu time spent up to now is     2873.5 secs

     End of self-consistent calculation

          k = 0.0000 0.0000 0.0000 ( 77079 PWs)   bands (ev):

   -21.7008 -21.3143 -21.3143 -21.3143 -21.3134 -21.3133 -21.3133 -20.5748
   -20.5748 -20.5748 -20.5748 -20.5748 -20.5748 -20.2327 -20.2323 -20.2322
   -20.2313 -20.2312 -20.2307 -19.3075 -19.3075 -19.3075 -19.3075 -19.3075
   -19.3075 -19.3068 -19.3068 -19.3068 -19.3068 -19.3068 -19.3068 -18.9113
   -18.9113 -18.9112 -18.9112 -18.9112 -18.9112 -18.4559 -18.4559 -18.4557
   -18.4557 -18.4545 -18.4545 -18.2915 -18.2915 -18.2915 -18.2915 -18.2914
   -18.2914 -12.6990 -12.6990 -12.6983 -12.6983 -12.6979 -12.6979 -12.4955
   -12.4955 -12.4955 -12.4955 -12.4955 -12.4955 -12.0077 -12.0077 -12.0077
   -12.0077 -12.0076 -12.0076 -11.3103 -11.3103 -11.3103 -11.3103 -11.3103
   -11.3103 -11.3097 -11.3097 -11.3097 -11.3097 -11.3097 -11.3097 -10.6483
   -10.6483 -10.6483 -10.6483 -10.6483 -10.6483  -9.9389  -9.9386  -9.9386
    -9.9380  -9.9379  -9.9376  -9.2820  -9.2360  -9.2360  -9.2355  -9.2355
    -9.2352  -9.2352  -8.8127  -8.8127  -8.8127  -8.8127  -8.8127  -8.8127
    -8.7683  -8.7683  -8.7683  -8.7683  -8.7683  -8.7683  -8.7671  -8.7671
    -8.7671  -8.7671  -8.7671  -8.7671  -8.7611  -8.7611  -8.7611  -8.7603
    -8.7603  -8.7602  -8.0941  -8.0941  -8.0940  -8.0940  -8.0940  -8.0940
    -7.7567  -7.7567  -7.7567  -7.7566  -7.7566  -7.7566  -7.4161  -7.4161
    -7.4161  -7.4161  -7.4160  -7.4160  -7.3103  -7.3101  -7.3101  -7.3097
    -7.3097  -7.3095  -7.2851  -7.2847  -7.2846  -7.2838  -7.2838  -7.2834
    -6.9171  -6.9170  -6.9170  -6.9165  -6.9165  -6.9165  -6.0946  -6.0946
    -6.0945  -6.0935  -6.0934  -6.0934  -5.9845  -5.9845  -5.9845  -5.9845
    -5.9845  -5.9845  -5.9840  -5.9840  -5.9840  -5.9840  -5.9840  -5.9840
    -5.4109  -5.4108  -5.3912  -5.3912  -5.3912  -5.3912  -5.3912  -5.3912
    -4.6939  -4.6939  -4.6937  -4.6937  -4.6928  -4.6928  -4.4491  -4.4491
    -4.4491  -4.4491  -4.4490  -4.4490

     highest occupied level (ev):    -4.4490

!    total energy              =   -1953.56485403 Ry
     Harris-Foulkes estimate   =   -1953.56485403 Ry
     estimated scf accuracy    <          5.2E-10 Ry

     total all-electron energy =     -7810.933983 Ry

     The total energy is the sum of the following terms:

     one-electron contribution =  -10743.19070305 Ry
     hartree contribution      =    5458.35605295 Ry
     xc contribution           =    -431.71398416 Ry
     ewald contribution        =    4409.08454517 Ry
     DFT-D3 Dispersion         =      -0.27035903 Ry
     one-center paw contrib.   =    -645.83040591 Ry

     convergence has been achieved in  12 iterations

     negative rho (up, down):  7.677E-03 0.000E+00

     Forces acting on atoms (cartesian axes, Ry/au):

     atom    1 type  1   force =     0.00000000   -0.00002532   -0.00000000
     atom    2 type  1   force =     0.00000990   -0.00000604   -0.00000000
     atom    3 type  1   force =    -0.00001192    0.00003006    0.00000000
     atom    4 type  1   force =    -0.00000364   -0.00000210    0.00000000
     atom    5 type  1   force =     0.00002007   -0.00002536    0.00000000
     atom    6 type  1   force =    -0.00000028    0.00001159   -0.00000000
     atom    7 type  1   force =    -0.00002193    0.00001266    0.00000000
     atom    8 type  1   force =    -0.00003238   -0.00001869   -0.00000000
     atom    9 type  1   force =    -0.00000990   -0.00000604   -0.00000000
     atom   10 type  1   force =    -0.00000000    0.00001296   -0.00000000
     atom   11 type  1   force =    -0.00002142   -0.00000188    0.00000000
     atom   12 type  1   force =    -0.00001234   -0.00001761    0.00000000
     atom   13 type  1   force =     0.00001123   -0.00000648    0.00000000
     atom   14 type  1   force =    -0.00001018   -0.00000555    0.00000000
     atom   15 type  1   force =     0.00001232   -0.00001781    0.00000000
     atom   16 type  1   force =    -0.00000926    0.00001958    0.00000000
     atom   17 type  1   force =     0.00001192    0.00003006    0.00000000
     atom   18 type  1   force =     0.00002142   -0.00000188    0.00000000
     atom   19 type  1   force =    -0.00000000    0.00000000    0.00000000
     atom   20 type  1   force =     0.00000908    0.00001949    0.00000000
     atom   21 type  1   force =     0.00003199   -0.00000471    0.00000000
     atom   22 type  1   force =     0.00002403   -0.00003235    0.00000000
     atom   23 type  1   force =     0.00000512    0.00000295    0.00000000
     atom   24 type  1   force =    -0.00001600    0.00003698    0.00000000
     atom   25 type  1   force =     0.00000364   -0.00000210   -0.00000000
     atom   26 type  1   force =     0.00001234   -0.00001761   -0.00000000
     atom   27 type  1   force =    -0.00000908    0.00001949    0.00000000
     atom   28 type  1   force =    -0.00000000    0.00000420    0.00000000
     atom   29 type  1   force =    -0.00002403   -0.00003235   -0.00000000
     atom   30 type  1   force =     0.00000000   -0.00002209    0.00000000
     atom   31 type  1   force =    -0.00001913    0.00001104    0.00000000
     atom   32 type  1   force =    -0.00004003   -0.00000463   -0.00000000
     atom   33 type  1   force =    -0.00002007   -0.00002536    0.00000000
     atom   34 type  1   force =    -0.00001123   -0.00000648   -0.00000000
     atom   35 type  1   force =    -0.00003199   -0.00000471    0.00000000
     atom   36 type  1   force =    -0.00001232   -0.00001781    0.00000000
     atom   37 type  1   force =    -0.00000512    0.00000295    0.00000000
     atom   38 type  1   force =     0.00001913    0.00001104    0.00000000
     atom   39 type  1   force =     0.00000000   -0.00000591    0.00000000
     atom   40 type  1   force =    -0.00002159   -0.00000177    0.00000000
     atom   41 type  1   force =     0.00000028    0.00001159    0.00000000
     atom   42 type  1   force =     0.00001018   -0.00000555    0.00000000
     atom   43 type  1   force =     0.00003238   -0.00001869    0.00000000
     atom   44 type  1   force =     0.00000926    0.00001958   -0.00000000
     atom   45 type  1   force =     0.00001600    0.00003698    0.00000000
     atom   46 type  1   force =     0.00004003   -0.00000463    0.00000000
     atom   47 type  1   force =     0.00002159   -0.00000177   -0.00000000
     atom   48 type  1   force =    -0.00000000    0.00003739    0.00000000
     atom   49 type  1   force =     0.00002193    0.00001266   -0.00000000
     atom   50 type  2   force =     0.00002689    0.00001552    0.00000000
     atom   51 type  2   force =    -0.00000000    0.00003380   -0.00000000
     atom   52 type  2   force =     0.00001235   -0.00001193    0.00000000
     atom   53 type  2   force =     0.00002540   -0.00001573    0.00000000
     atom   54 type  2   force =    -0.00000092    0.00002986   -0.00000000
     atom   55 type  2   force =    -0.00000416    0.00001666    0.00000000
     atom   56 type  2   force =     0.00002927   -0.00001690    0.00000000
     atom   57 type  2   force =     0.00001637    0.00000530    0.00000000
     atom   58 type  2   force =     0.00001277    0.00001153    0.00000000
     atom   59 type  2   force =    -0.00001235   -0.00001193    0.00000000
     atom   60 type  2   force =     0.00000000   -0.00001652   -0.00000000
     atom   61 type  2   force =     0.00001139    0.00000658   -0.00000000
     atom   62 type  2   force =    -0.00001431    0.00000826    0.00000000
     atom   63 type  2   force =    -0.00001651   -0.00000473    0.00000000
     atom   64 type  2   force =    -0.00002980    0.00001699   -0.00000000
     atom   65 type  2   force =     0.00000247    0.00000142    0.00000000
     atom   66 type  2   force =    -0.00000019   -0.00003431    0.00000000
     atom   67 type  2   force =    -0.00002540   -0.00001573    0.00000000
     atom   68 type  2   force =    -0.00001139    0.00000658    0.00000000
     atom   69 type  2   force =     0.00000000   -0.00001316    0.00000000
     atom   70 type  2   force =    -0.00002632   -0.00001413    0.00000000
     atom   71 type  2   force =    -0.00000000    0.00002985    0.00000000
     atom   72 type  2   force =    -0.00000432    0.00003359   -0.00000000
     atom   73 type  2   force =     0.00002693   -0.00002053   -0.00000000
     atom   74 type  2   force =     0.00002585   -0.00001493    0.00000000
     atom   75 type  2   force =     0.00000092    0.00002986    0.00000000
     atom   76 type  2   force =     0.00001431    0.00000826    0.00000000
     atom   77 type  2   force =     0.00002632   -0.00001413    0.00000000
     atom   78 type  2   force =     0.00002980    0.00001699    0.00000000
     atom   79 type  2   force =     0.00000432    0.00003359   -0.00000000
     atom   80 type  2   force =     0.00000000    0.00000000    0.00000000
     atom   81 type  2   force =     0.00003125   -0.00001305    0.00000000
     atom   82 type  2   force =     0.00002962    0.00001732    0.00000000
     atom   83 type  2   force =     0.00000416    0.00001666    0.00000000
     atom   84 type  2   force =     0.00001651   -0.00000473    0.00000000
     atom   85 type  2   force =    -0.00001637    0.00000530    0.00000000
     atom   86 type  2   force =    -0.00000247    0.00000142   -0.00000000
     atom   87 type  2   force =    -0.00002693   -0.00002053    0.00000000
     atom   88 type  2   force =    -0.00003125   -0.00001305   -0.00000000
     atom   89 type  2   force =     0.00000000   -0.00000285    0.00000000
     atom   90 type  2   force =    -0.00000360   -0.00001682    0.00000000
     atom   91 type  2   force =    -0.00002927   -0.00001690    0.00000000
     atom   92 type  2   force =    -0.00002689    0.00001552    0.00000000
     atom   93 type  2   force =    -0.00001277    0.00001153    0.00000000
     atom   94 type  2   force =     0.00000019   -0.00003431    0.00000000
     atom   95 type  2   force =    -0.00002585   -0.00001493    0.00000000
     atom   96 type  2   force =    -0.00002962    0.00001732    0.00000000
     atom   97 type  2   force =     0.00000360   -0.00001682   -0.00000000
     atom   98 type  2   force =     0.00000000   -0.00003105   -0.00000000

     Total force =     0.000253     Total SCF correction =     0.000032
     SCF correction compared to forces is large: reduce conv_thr to get better values


     Computing stress (Cartesian axis) and pressure


     negative rho (up, down):  7.677E-03 0.000E+00
          total   stress  (Ry/bohr**3)                   (kbar)     P=   -0.95
  -0.00000005   0.00000000  -0.00000000         -0.01      0.00     -0.00
   0.00000000  -0.00000005  -0.00000000          0.00     -0.01     -0.00
   0.00000000   0.00000000  -0.00001919          0.00      0.00     -2.82


     Writing output data file hBN.save/
 
     init_run     :     53.39s CPU     56.99s WALL (       2 calls)
     electrons    :   2279.32s CPU   2374.46s WALL (       5 calls)
     update_pot   :     94.27s CPU     96.70s WALL (       3 calls)
     forces       :    110.59s CPU    122.30s WALL (       5 calls)
     stress       :    263.77s CPU    269.70s WALL (       5 calls)

     Called by init_run:
     wfcinit      :      8.61s CPU      9.21s WALL (       2 calls)
     potinit      :     19.77s CPU     21.32s WALL (       2 calls)
     hinit0       :     20.64s CPU     20.83s WALL (       2 calls)

     Called by electrons:
     c_bands      :   2013.40s CPU   2040.14s WALL (      36 calls)
     sum_band     :     74.92s CPU     97.52s WALL (      36 calls)
     v_of_rho     :    117.15s CPU    143.37s WALL (      38 calls)
     newd         :     23.06s CPU     43.94s WALL (      38 calls)
     PAW_pot      :     63.38s CPU     63.63s WALL (      41 calls)
     mix_rho      :      6.97s CPU      7.91s WALL (      36 calls)

     Called by c_bands:
     init_us_2    :      1.77s CPU      1.95s WALL (      77 calls)
     rcgdiagg     :   1943.96s CPU   1967.02s WALL (      40 calls)
     wfcrot       :     76.60s CPU     80.53s WALL (      34 calls)

     Called by sum_band:
     sum_band:bec :      0.01s CPU      0.02s WALL (      39 calls)
     addusdens    :     21.20s CPU     42.08s WALL (      36 calls)

     Called by *cgdiagg:
     h_psi        :   1149.98s CPU   1170.05s WALL (   28422 calls)
     s_psi        :    515.53s CPU    518.45s WALL (   56810 calls)
     rdiaghg      :      0.41s CPU      0.45s WALL (      34 calls)

     Called by h_psi:
     h_psi:pot    :   1149.19s CPU   1169.19s WALL (   28422 calls)
     h_psi:calbec :    286.69s CPU    288.56s WALL (   28422 calls)
     vloc_psi     :    598.22s CPU    614.81s WALL (   28422 calls)
     add_vuspsi   :    263.91s CPU    265.54s WALL (   28422 calls)
     hs_1psi      :   1336.62s CPU   1356.10s WALL (   28388 calls)
     s_1psi       :    525.72s CPU    528.48s WALL (   28388 calls)

     General routines
     calbec       :    559.75s CPU    563.47s WALL (   56874 calls)
     fft          :    124.59s CPU    155.29s WALL (     514 calls)
     ffts         :      0.95s CPU      1.06s WALL (      74 calls)
     fftw         :    425.37s CPU    441.43s WALL (   67360 calls)
     interpolate  :      3.79s CPU      4.15s WALL (      38 calls)
     davcio       :      0.00s CPU      0.13s WALL (       4 calls)
 
     Parallel routines
     fft_scatt_xy :     65.12s CPU     65.59s WALL (   67948 calls)
     fft_scatt_yz :    145.47s CPU    187.43s WALL (   67948 calls)
 
     PWSCF        :  46m50.64s CPU  48m57.36s WALL

 
   This run was terminated on:  17:43:57   5Jun2021            

=------------------------------------------------------------------------------=
   JOB DONE.
=------------------------------------------------------------------------------=
