
     Program PWSCF v.6.4.1 starts on  9Jun2021 at 10:31: 1 

     This program is part of the open-source Quantum ESPRESSO suite
     for quantum simulation of materials; please cite
         "P. Giannozzi et al., J. Phys.:Condens. Matter 21 395502 (2009);
         "P. Giannozzi et al., J. Phys.:Condens. Matter 29 465901 (2017);
          URL http://www.quantum-espresso.org", 
     in publications or presentations arising from this work. More details at
     http://www.quantum-espresso.org/quote

     Parallel version (MPI), running on    64 processors

     MPI processes distributed on     2 nodes
     R & G space division:  proc/nbgrp/npool/nimage =      64
     Waiting for input...
     Reading input from standard input

     Current dimensions of program PWSCF are:
     Max number of different atomic species (ntypx) = 10
     Max number of k-points (npk) =  40000
     Max angular momentum in pseudopotentials (lmaxx) =  3
               file N.pbe-n-kjpaw_psl.1.0.0.UPF: wavefunction(s)  2S renormalized
               file C.pbe-n-kjpaw_psl.1.0.0.UPF: wavefunction(s)  2S 2P renormalized
               file C.pbe-n-kjpaw_psl.1.0.0.UPF: wavefunction(s)  2S 2P renormalized
               file C.pbe-n-kjpaw_psl.1.0.0.UPF: wavefunction(s)  2S 2P renormalized

     --------------------------------------------
     Parameters for DFT-D3 Dispersion Correction:
     --------------------------------------------
       Reference C6 values for interpolation: 

         atom   Coordination number   C6
         B          0.000           214.36
         B          0.971           150.74
         B          1.944           106.23
         B          2.913            62.89
         B          4.586            56.06
         C1         0.000            98.23
         C1         0.987            86.49
         C1         1.998            58.72
         C1         2.999            51.56
         C1         3.984            36.41
         C2         0.000            98.23
         C2         0.987            86.49
         C2         1.998            58.72
         C2         2.999            51.56
         C2         3.984            36.41
         C3         0.000            98.23
         C3         0.987            86.49
         C3         1.998            58.72
         C3         2.999            51.56
         C3         3.984            36.41
         N          0.000            50.54
         N          0.994            44.25
         N          2.014            39.35
         N          2.990            31.16

       Values used:

         atom   Coordination number  R0_AB[au]  C6      C8
         B          3.327            3.039     62.90   2506.22
         B          3.317            3.039     62.90   2506.44
         B          3.318            3.039     62.90   2506.43
         B          3.324            3.039     62.90   2506.28
         B          3.325            3.039     62.90   2506.26
         B          3.323            3.039     62.90   2506.30
         B          3.326            3.039     62.90   2506.23
         B          3.324            3.039     62.90   2506.27
         B          3.325            3.039     62.90   2506.27
         B          3.306            3.039     62.91   2506.68
         B          3.319            3.039     62.90   2506.38
         B          3.325            3.039     62.90   2506.26
         B          3.323            3.039     62.90   2506.31
         B          3.323            3.039     62.90   2506.30
         B          3.323            3.039     62.90   2506.29
         B          3.326            3.039     62.90   2506.23
         B          3.293            3.039     62.92   2506.97
         B          3.278            3.039     62.92   2507.31
         B          3.322            3.039     62.90   2506.32
         B          3.325            3.039     62.90   2506.26
         B          3.325            3.039     62.90   2506.26
         B          3.322            3.039     62.90   2506.34
         B          3.317            3.039     62.90   2506.44
         B          3.305            3.039     62.91   2506.70
         C2         3.234            2.750     49.64   1435.59
         B          3.278            3.039     62.92   2507.31
         B          3.319            3.039     62.90   2506.38
         B          3.324            3.039     62.90   2506.28
         B          3.319            3.039     62.90   2506.39
         B          3.316            3.039     62.90   2506.46
         B          3.307            3.039     62.91   2506.67
         B          3.305            3.039     62.91   2506.70
         B          3.293            3.039     62.92   2506.97
         B          3.306            3.039     62.91   2506.68
         B          3.318            3.039     62.90   2506.43
         B          3.316            3.039     62.90   2506.47
         B          3.316            3.039     62.90   2506.46
         B          3.316            3.039     62.90   2506.46
         B          3.317            3.039     62.90   2506.44
         B          3.326            3.039     62.90   2506.23
         B          3.325            3.039     62.90   2506.27
         B          3.317            3.039     62.90   2506.44
         B          3.319            3.039     62.90   2506.40
         B          3.316            3.039     62.90   2506.47
         B          3.319            3.039     62.90   2506.39
         B          3.322            3.039     62.90   2506.34
         B          3.323            3.039     62.90   2506.29
         B          3.324            3.039     62.90   2506.27
         B          3.327            3.039     62.90   2506.22
         N          3.129            2.478     31.22    688.74
         N          3.129            2.478     31.22    688.75
         N          3.126            2.478     31.22    688.78
         N          3.128            2.478     31.22    688.76
         N          3.129            2.478     31.22    688.74
         N          3.128            2.478     31.22    688.75
         N          3.128            2.478     31.22    688.75
         N          3.128            2.478     31.22    688.75
         N          3.129            2.478     31.22    688.74
         N          3.126            2.478     31.22    688.78
         N          3.123            2.478     31.22    688.80
         N          3.129            2.478     31.22    688.74
         N          3.128            2.478     31.22    688.75
         N          3.128            2.478     31.22    688.75
         N          3.129            2.478     31.22    688.75
         N          3.129            2.478     31.22    688.75
         N          3.130            2.478     31.22    688.74
         C1         3.172            2.750     50.34   1456.06
         N          3.126            2.478     31.22    688.77
         N          3.129            2.478     31.22    688.74
         N          3.129            2.478     31.22    688.74
         N          3.128            2.478     31.22    688.75
         N          3.126            2.478     31.22    688.77
         N          3.123            2.478     31.22    688.80
         N          3.141            2.478     31.22    688.63
         C3         3.172            2.750     50.34   1456.06
         N          3.123            2.478     31.22    688.80
         N          3.128            2.478     31.22    688.76
         N          3.127            2.478     31.22    688.77
         N          3.126            2.478     31.22    688.77
         N          3.125            2.478     31.22    688.79
         N          3.123            2.478     31.22    688.80
         N          3.130            2.478     31.22    688.74
         N          3.126            2.478     31.22    688.78
         N          3.126            2.478     31.22    688.78
         N          3.126            2.478     31.22    688.77
         N          3.126            2.478     31.22    688.78
         N          3.126            2.478     31.22    688.77
         N          3.126            2.478     31.22    688.77
         N          3.129            2.478     31.22    688.75
         N          3.129            2.478     31.22    688.74
         N          3.129            2.478     31.22    688.75
         N          3.129            2.478     31.22    688.74
         N          3.126            2.478     31.22    688.77
         N          3.127            2.478     31.22    688.77
         N          3.128            2.478     31.22    688.75
         N          3.129            2.478     31.22    688.75
         N          3.128            2.478     31.22    688.75
         N          3.129            2.478     31.22    688.74

         Molecular C6 ( Ry / a.u.^6 ) =    437763.30


     gamma-point specific algorithms are used

     Subspace diagonalization in iterative solution of the eigenvalue problem:
     one sub-group per band group will be used
     scalapack distributed-memory algorithm (size of sub-group:  5*  5 procs)

     Message from routine setup:
     DEPRECATED: symmetry with ibrav=0, use correct ibrav instead
 
     Parallelization info
     --------------------
     sticks:   dense  smooth     PW     G-vecs:    dense   smooth      PW
     Min         189     189     46                19338    19338    2406
     Max         192     192     48                19354    19354    2428
     Sum       12177   12177   3053              1238333  1238333  154965
 


     bravais-lattice index     =            0
     lattice parameter (alat)  =      33.2346  a.u.
     unit-cell volume          =   36237.7857 (a.u.)^3
     number of atoms/cell      =           98
     number of atomic types    =            5
     number of electrons       =       391.00
     number of Kohn-Sham states=          245
     kinetic-energy cutoff     =      40.0000  Ry
     charge density cutoff     =     160.0000  Ry
     convergence threshold     =      1.0E-12
     mixing beta               =       0.7000
     number of iterations used =            8  plain     mixing
     Exchange-correlation      = SLA PW PBX PBC ( 1  4  3  4 0 0)
     Using LIBXC version       =    4   3   4
     nstep                     =           50


     celldm(1)=  33.234611  celldm(2)=   0.000000  celldm(3)=   0.000000
     celldm(4)=   0.000000  celldm(5)=   0.000000  celldm(6)=   0.000000

     crystal axes: (cart. coord. in units of alat)
               a(1) = (   1.001046   0.000225   0.000000 )  
               a(2) = (  -0.500328   0.867044   0.000000 )  
               a(3) = (   0.000000   0.000000   1.137204 )  

     reciprocal axes: (cart. coord. in units 2 pi/alat)
               b(1) = (  0.998825  0.576373  0.000000 )  
               b(2) = ( -0.000259  1.153194  0.000000 )  
               b(3) = (  0.000000  0.000000  0.879350 )  


     PseudoPot. # 1 for B  read from file:
     ./pseudo/B.pbe-n-kjpaw_psl.1.0.0.UPF
     MD5 check sum: 8c825a5969375aca5c2c6ad5945b3059
     Pseudo is Projector augmented-wave + core cor, Zval =  3.0
     Generated using "atomic" code by A. Dal Corso v.6.3
     Shape of augmentation charge: PSQ
     Using radial grid of 1059 points,  4 beta functions with: 
                l(1) =   0
                l(2) =   0
                l(3) =   1
                l(4) =   1
     Q(r) pseudized with 0 coefficients 


     PseudoPot. # 2 for N  read from file:
     ./pseudo/N.pbe-n-kjpaw_psl.1.0.0.UPF
     MD5 check sum: 14c48229446f9f2d411169a3abcbc3fa
     Pseudo is Projector augmented-wave + core cor, Zval =  5.0
     Generated using "atomic" code by A. Dal Corso v.6.3
     Shape of augmentation charge: PSQ
     Using radial grid of 1085 points,  4 beta functions with: 
                l(1) =   0
                l(2) =   0
                l(3) =   1
                l(4) =   1
     Q(r) pseudized with 0 coefficients 


     PseudoPot. # 3 for C  read from file:
     ./pseudo/C.pbe-n-kjpaw_psl.1.0.0.UPF
     MD5 check sum: 5f16ad9a65e90284d1d834d4ab3b0f7d
     Pseudo is Projector augmented-wave + core cor, Zval =  4.0
     Generated using "atomic" code by A. Dal Corso v.6.3
     Shape of augmentation charge: PSQ
     Using radial grid of 1073 points,  4 beta functions with: 
                l(1) =   0
                l(2) =   0
                l(3) =   1
                l(4) =   1
     Q(r) pseudized with 0 coefficients 


     PseudoPot. # 4 for C  read from file:
     ./pseudo/C.pbe-n-kjpaw_psl.1.0.0.UPF
     MD5 check sum: 5f16ad9a65e90284d1d834d4ab3b0f7d
     Pseudo is Projector augmented-wave + core cor, Zval =  4.0
     Generated using "atomic" code by A. Dal Corso v.6.3
     Shape of augmentation charge: PSQ
     Using radial grid of 1073 points,  4 beta functions with: 
                l(1) =   0
                l(2) =   0
                l(3) =   1
                l(4) =   1
     Q(r) pseudized with 0 coefficients 


     PseudoPot. # 5 for C  read from file:
     ./pseudo/C.pbe-n-kjpaw_psl.1.0.0.UPF
     MD5 check sum: 5f16ad9a65e90284d1d834d4ab3b0f7d
     Pseudo is Projector augmented-wave + core cor, Zval =  4.0
     Generated using "atomic" code by A. Dal Corso v.6.3
     Shape of augmentation charge: PSQ
     Using radial grid of 1073 points,  4 beta functions with: 
                l(1) =   0
                l(2) =   0
                l(3) =   1
                l(4) =   1
     Q(r) pseudized with 0 coefficients 


     atomic species   valence    mass     pseudopotential
        B              3.00    10.00000     B ( 1.00)
        N              5.00    14.00000     N ( 1.00)
        C1             4.00    12.00000     C ( 1.00)
        C2             4.00    12.00000     C ( 1.00)
        C3             4.00    12.00000     C ( 1.00)

     Starting magnetic structure 
     atomic species   magnetization
        B            0.000
        N            0.000
        C1           1.000
        C2           0.000
        C3           0.000

      2 Sym. Ops. (no inversion) found



   Cartesian axes

     site n.     atom                  positions (alat units)
         1           B   tau(   1) = (  -0.0000556   0.0820633   0.5686018  )
         2           B   tau(   2) = (  -0.0715941   0.2061393   0.5686018  )
         3           B   tau(   3) = (  -0.1432678   0.3302710   0.5686018  )
         4           B   tau(   4) = (  -0.2148259   0.4541136   0.5686018  )
         5           B   tau(   5) = (  -0.2858274   0.5779991   0.5686018  )
         6           B   tau(   6) = (  -0.3570784   0.7019733   0.5686018  )
         7           B   tau(   7) = (  -0.4286784   0.8256769   0.5686018  )
         8           B   tau(   8) = (   0.1429300   0.0817696   0.5686018  )
         9           B   tau(   9) = (   0.0710341   0.2049652   0.5686018  )
        10           B   tau(  10) = (  -0.0002682   0.3300827   0.5686018  )
        11           B   tau(  11) = (  -0.0724433   0.4541259   0.5686018  )
        12           B   tau(  12) = (  -0.1437308   0.5781879   0.5686018  )
        13           B   tau(  13) = (  -0.2144820   0.7020106   0.5686018  )
        14           B   tau(  14) = (  -0.2857478   0.8255215   0.5686018  )
        15           B   tau(  15) = (   0.2863684   0.0818402   0.5686018  )
        16           B   tau(  16) = (   0.2148858   0.2046069   0.5686018  )
        17           B   tau(  17) = (   0.1428967   0.3266899   0.5686018  )
        18           B   tau(  18) = (   0.0696707   0.4554626   0.5686018  )
        19           B   tau(  19) = (  -0.0019709   0.5793173   0.5686018  )
        20           B   tau(  20) = (  -0.0718728   0.7026497   0.5686018  )
        21           B   tau(  21) = (  -0.1427575   0.8258034   0.5686018  )
        22           B   tau(  22) = (   0.4291497   0.0826050   0.5686018  )
        23           B   tau(  23) = (   0.3575934   0.2061907   0.5686018  )
        24           B   tau(  24) = (   0.2854959   0.3293535   0.5686018  )
        25           C2  tau(  25) = (   0.2168508   0.4529806   0.5686018  )
        26           B   tau(  26) = (   0.1411112   0.5792013   0.5686018  )
        27           B   tau(  27) = (   0.0712119   0.7029439   0.5686018  )
        28           B   tau(  28) = (   0.0000312   0.8262570   0.5686018  )
        29           B   tau(  29) = (   0.5719397   0.0827805   0.5686018  )
        30           B   tau(  30) = (   0.5005438   0.2065452   0.5686018  )
        31           B   tau(  31) = (   0.4290627   0.3304599   0.5686018  )
        32           B   tau(  32) = (   0.3582375   0.4553457   0.5686018  )
        33           B   tau(  33) = (   0.2892447   0.5801722   0.5686018  )
        34           B   tau(  34) = (   0.2147240   0.7024602   0.5686018  )
        35           B   tau(  35) = (   0.1430612   0.8262072   0.5686018  )
        36           B   tau(  36) = (   0.7149643   0.0828282   0.5686018  )
        37           B   tau(  37) = (   0.6434422   0.2066879   0.5686018  )
        38           B   tau(  38) = (   0.5721166   0.3305129   0.5686018  )
        39           B   tau(  39) = (   0.5009484   0.4544889   0.5686018  )
        40           B   tau(  40) = (   0.4309662   0.5788692   0.5686018  )
        41           B   tau(  41) = (   0.3587301   0.7032693   0.5686018  )
        42           B   tau(  42) = (   0.2863992   0.8262018   0.5686018  )
        43           B   tau(  43) = (   0.8581432   0.0827302   0.5686018  )
        44           B   tau(  44) = (   0.7864688   0.2066778   0.5686018  )
        45           B   tau(  45) = (   0.7149978   0.3305646   0.5686018  )
        46           B   tau(  46) = (   0.6437549   0.4543121   0.5686018  )
        47           B   tau(  47) = (   0.5730266   0.5783468   0.5686018  )
        48           B   tau(  48) = (   0.5013685   0.7026034   0.5686018  )
        49           B   tau(  49) = (   0.4296213   0.8262855   0.5686018  )
        50           N   tau(  50) = (   0.0714526   0.0409069   0.5686018  )
        51           N   tau(  51) = (  -0.0003971   0.1643440   0.5686018  )
        52           N   tau(  52) = (  -0.0717341   0.2888337   0.5686018  )
        53           N   tau(  53) = (  -0.1436150   0.4127635   0.5686018  )
        54           N   tau(  54) = (  -0.2148012   0.5366406   0.5686018  )
        55           N   tau(  55) = (  -0.2857792   0.6605861   0.5686018  )
        56           N   tau(  56) = (  -0.3571974   0.7844075   0.5686018  )
        57           N   tau(  57) = (   0.2146577   0.0408410   0.5686018  )
        58           N   tau(  58) = (   0.1428716   0.1640291   0.5686018  )
        59           N   tau(  59) = (   0.0708268   0.2872453   0.5686018  )
        60           N   tau(  60) = (  -0.0011141   0.4129474   0.5686018  )
        61           N   tau(  61) = (  -0.0727256   0.5369622   0.5686018  )
        62           N   tau(  62) = (  -0.1431739   0.6608409   0.5686018  )
        63           N   tau(  63) = (  -0.2142559   0.7844682   0.5686018  )
        64           N   tau(  64) = (   0.3578355   0.0411132   0.5686018  )
        65           N   tau(  65) = (   0.2866084   0.1641428   0.5686018  )
        66           N   tau(  66) = (   0.2150142   0.2863837   0.5686018  )
        67           C1  tau(  67) = (   0.1447049   0.4124471   0.5686018  )
        68           N   tau(  68) = (   0.0686997   0.5385156   0.5686018  )
        69           N   tau(  69) = (  -0.0006677   0.6617702   0.5686018  )
        70           N   tau(  70) = (  -0.0714270   0.7849721   0.5686018  )
        71           N   tau(  71) = (   0.5005301   0.0416172   0.5686018  )
        72           N   tau(  72) = (   0.4291152   0.1652640   0.5686018  )
        73           N   tau(  73) = (   0.3573304   0.2892394   0.5686018  )
        74           N   tau(  74) = (   0.2853598   0.4134269   0.5686018  )
        75           C3  tau(  75) = (   0.2158808   0.5357275   0.5686018  )
        76           N   tau(  76) = (   0.1425380   0.6617603   0.5686018  )
        77           N   tau(  77) = (   0.0714468   0.7852616   0.5686018  )
        78           N   tau(  78) = (   0.6434430   0.0416555   0.5686018  )
        79           N   tau(  79) = (   0.5719618   0.1653832   0.5686018  )
        80           N   tau(  80) = (   0.5004133   0.2892657   0.5686018  )
        81           N   tau(  81) = (   0.4288947   0.4131922   0.5686018  )
        82           N   tau(  82) = (   0.3602096   0.5378695   0.5686018  )
        83           N   tau(  83) = (   0.2873697   0.6623086   0.5686018  )
        84           N   tau(  84) = (   0.2147136   0.7849758   0.5686018  )
        85           N   tau(  85) = (   0.7865387   0.0416341   0.5686018  )
        86           N   tau(  86) = (   0.7149349   0.1654117   0.5686018  )
        87           N   tau(  87) = (   0.6434729   0.2892442   0.5686018  )
        88           N   tau(  88) = (   0.5721528   0.4130125   0.5686018  )
        89           N   tau(  89) = (   0.5018704   0.5369875   0.5686018  )
        90           N   tau(  90) = (   0.4301005   0.6615241   0.5686018  )
        91           N   tau(  91) = (   0.3581935   0.7854411   0.5686018  )
        92           N   tau(  92) = (   0.9295775   0.0414878   0.5686018  )
        93           N   tau(  93) = (   0.8579313   0.1652898   0.5686018  )
        94           N   tau(  94) = (   0.7863650   0.2892034   0.5686018  )
        95           N   tau(  95) = (   0.7149415   0.4129887   0.5686018  )
        96           N   tau(  96) = (   0.6440308   0.5368178   0.5686018  )
        97           N   tau(  97) = (   0.5726776   0.6609497   0.5686018  )
        98           N   tau(  98) = (   0.5010181   0.7849360   0.5686018  )

     number of k points=     1
                       cart. coord. in units 2pi/alat
        k(    1) = (   0.0000000   0.0000000   0.0000000), wk =   1.0000000

     Dense  grid:   619167 G-vectors     FFT dimensions: ( 135, 135, 160)

     Occupations read from input 

      Spin-up

        1.0000   1.0000   1.0000   1.0000   1.0000   1.0000   1.0000   1.0000
        1.0000   1.0000   1.0000   1.0000   1.0000   1.0000   1.0000   1.0000
        1.0000   1.0000   1.0000   1.0000   1.0000   1.0000   1.0000   1.0000
        1.0000   1.0000   1.0000   1.0000   1.0000   1.0000   1.0000   1.0000
        1.0000   1.0000   1.0000   1.0000   1.0000   1.0000   1.0000   1.0000
        1.0000   1.0000   1.0000   1.0000   1.0000   1.0000   1.0000   1.0000
        1.0000   1.0000   1.0000   1.0000   1.0000   1.0000   1.0000   1.0000
        1.0000   1.0000   1.0000   1.0000   1.0000   1.0000   1.0000   1.0000
        1.0000   1.0000   1.0000   1.0000   1.0000   1.0000   1.0000   1.0000
        1.0000   1.0000   1.0000   1.0000   1.0000   1.0000   1.0000   1.0000
        1.0000   1.0000   1.0000   1.0000   1.0000   1.0000   1.0000   1.0000
        1.0000   1.0000   1.0000   1.0000   1.0000   1.0000   1.0000   1.0000
        1.0000   1.0000   1.0000   1.0000   1.0000   1.0000   1.0000   1.0000
        1.0000   1.0000   1.0000   1.0000   1.0000   1.0000   1.0000   1.0000
        1.0000   1.0000   1.0000   1.0000   1.0000   1.0000   1.0000   1.0000
        1.0000   1.0000   1.0000   1.0000   1.0000   1.0000   1.0000   1.0000
        1.0000   1.0000   1.0000   1.0000   1.0000   1.0000   1.0000   1.0000
        1.0000   1.0000   1.0000   1.0000   1.0000   1.0000   1.0000   1.0000
        1.0000   1.0000   1.0000   1.0000   1.0000   1.0000   1.0000   1.0000
        1.0000   1.0000   1.0000   1.0000   1.0000   1.0000   1.0000   1.0000
        1.0000   1.0000   1.0000   1.0000   1.0000   1.0000   1.0000   1.0000
        1.0000   1.0000   1.0000   1.0000   1.0000   1.0000   1.0000   1.0000
        1.0000   1.0000   1.0000   1.0000   1.0000   1.0000   1.0000   1.0000
        1.0000   1.0000   1.0000   1.0000   1.0000   1.0000   1.0000   1.0000
        1.0000   1.0000   1.0000   1.0000   1.0000   0.0000   0.0000   0.0000
        0.0000   0.0000   0.0000   0.0000   0.0000   0.0000   0.0000   0.0000
        0.0000   0.0000   0.0000   0.0000   0.0000   0.0000   0.0000   0.0000
        0.0000   0.0000   0.0000   0.0000   0.0000   0.0000   0.0000   0.0000
        0.0000   0.0000   0.0000   0.0000   0.0000   0.0000   0.0000   0.0000
        0.0000   0.0000   0.0000   0.0000   0.0000   0.0000   0.0000   0.0000
        0.0000   0.0000   0.0000   0.0000   0.0000

      Spin-down

        1.0000   1.0000   1.0000   1.0000   1.0000   1.0000   1.0000   1.0000
        1.0000   1.0000   1.0000   1.0000   1.0000   1.0000   1.0000   1.0000
        1.0000   1.0000   1.0000   1.0000   1.0000   1.0000   1.0000   1.0000
        1.0000   1.0000   1.0000   1.0000   1.0000   1.0000   1.0000   1.0000
        1.0000   1.0000   1.0000   1.0000   1.0000   1.0000   1.0000   1.0000
        1.0000   1.0000   1.0000   1.0000   1.0000   1.0000   1.0000   1.0000
        1.0000   1.0000   1.0000   1.0000   1.0000   1.0000   1.0000   1.0000
        1.0000   1.0000   1.0000   1.0000   1.0000   1.0000   1.0000   1.0000
        1.0000   1.0000   1.0000   1.0000   1.0000   1.0000   1.0000   1.0000
        1.0000   1.0000   1.0000   1.0000   1.0000   1.0000   1.0000   1.0000
        1.0000   1.0000   1.0000   1.0000   1.0000   1.0000   1.0000   1.0000
        1.0000   1.0000   1.0000   1.0000   1.0000   1.0000   1.0000   1.0000
        1.0000   1.0000   1.0000   1.0000   1.0000   1.0000   1.0000   1.0000
        1.0000   1.0000   1.0000   1.0000   1.0000   1.0000   1.0000   1.0000
        1.0000   1.0000   1.0000   1.0000   1.0000   1.0000   1.0000   1.0000
        1.0000   1.0000   1.0000   1.0000   1.0000   1.0000   1.0000   1.0000
        1.0000   1.0000   1.0000   1.0000   1.0000   1.0000   1.0000   1.0000
        1.0000   1.0000   1.0000   1.0000   1.0000   1.0000   1.0000   1.0000
        1.0000   1.0000   1.0000   1.0000   1.0000   1.0000   1.0000   1.0000
        1.0000   1.0000   1.0000   1.0000   1.0000   1.0000   1.0000   1.0000
        1.0000   1.0000   1.0000   1.0000   1.0000   1.0000   1.0000   1.0000
        1.0000   1.0000   1.0000   1.0000   1.0000   1.0000   1.0000   1.0000
        1.0000   1.0000   1.0000   1.0000   1.0000   1.0000   1.0000   1.0000
        1.0000   1.0000   1.0000   1.0000   1.0000   1.0000   1.0000   1.0000
        1.0000   1.0000   0.0000   0.0000   0.0000   0.0000   0.0000   0.0000
        0.0000   0.0000   0.0000   0.0000   0.0000   0.0000   0.0000   0.0000
        0.0000   0.0000   0.0000   0.0000   0.0000   0.0000   0.0000   0.0000
        0.0000   0.0000   0.0000   0.0000   0.0000   0.0000   0.0000   0.0000
        0.0000   0.0000   0.0000   0.0000   0.0000   0.0000   0.0000   0.0000
        0.0000   0.0000   0.0000   0.0000   0.0000   0.0000   0.0000   0.0000
        0.0000   0.0000   0.0000   0.0000   0.0000

     Estimated max dynamical RAM per process >     122.42 MB

     Estimated total dynamical RAM >       7.65 GB
     Generating pointlists ...
     new r_m :   0.0337 (alat units)  1.1187 (a.u.) for type    1
     new r_m :   0.0326 (alat units)  1.0845 (a.u.) for type    2
     new r_m :   0.0341 (alat units)  1.1345 (a.u.) for type    3
     new r_m :   0.0326 (alat units)  1.0845 (a.u.) for type    4
     new r_m :   0.0341 (alat units)  1.1345 (a.u.) for type    5

     Check: negative core charge=   -0.000006

     Initial potential from superposition of free atoms

     starting charge  390.98597, renormalised to  391.00000

     negative rho (up, down):  5.512E-02 5.800E-02
     Starting wfcs are  392 randomized atomic wfcs
     Checking if some PAW data can be deallocated... 

     total cpu time spent up to now is      182.9 secs

     Self-consistent Calculation

     iteration #  1     ecut=    40.00 Ry     beta= 0.70
     CG style diagonalization
     ethr =  1.00E-02,  avg # of iterations =  3.1

     negative rho (up, down):  3.258E-01 1.534E-02

     total cpu time spent up to now is      219.9 secs

     total energy              =   -1933.25644407 Ry
     Harris-Foulkes estimate   =   -1946.27547234 Ry
     estimated scf accuracy    <      19.77168098 Ry

     total magnetization       =     3.00 Bohr mag/cell
     absolute magnetization    =     3.32 Bohr mag/cell

     iteration #  2     ecut=    40.00 Ry     beta= 0.70
     CG style diagonalization
     ethr =  5.06E-03,  avg # of iterations =  4.0

     negative rho (up, down):  3.616E-01 1.192E-02

     total cpu time spent up to now is      255.4 secs

     total energy              =   -1937.43118610 Ry
     Harris-Foulkes estimate   =   -1943.63351603 Ry
     estimated scf accuracy    <      12.12366917 Ry

     total magnetization       =     3.00 Bohr mag/cell
     absolute magnetization    =     3.24 Bohr mag/cell

     iteration #  3     ecut=    40.00 Ry     beta= 0.70
     CG style diagonalization
     ethr =  3.10E-03,  avg # of iterations =  3.8

     negative rho (up, down):  4.044E-01 1.252E-02

     total cpu time spent up to now is      288.7 secs

     total energy              =   -1939.65524057 Ry
     Harris-Foulkes estimate   =   -1940.41190294 Ry
     estimated scf accuracy    <       1.39499162 Ry

     total magnetization       =     3.00 Bohr mag/cell
     absolute magnetization    =     3.23 Bohr mag/cell

     iteration #  4     ecut=    40.00 Ry     beta= 0.70
     CG style diagonalization
     c_bands:  1 eigenvalues not converged
     ethr =  3.57E-04,  avg # of iterations =  4.2

     negative rho (up, down):  4.537E-01 1.168E-02

     total cpu time spent up to now is      326.9 secs

     total energy              =   -1939.95766763 Ry
     Harris-Foulkes estimate   =   -1940.46957270 Ry
     estimated scf accuracy    <       1.63134377 Ry

     total magnetization       =     3.00 Bohr mag/cell
     absolute magnetization    =     3.20 Bohr mag/cell

     iteration #  5     ecut=    40.00 Ry     beta= 0.70
     CG style diagonalization
     ethr =  3.57E-04,  avg # of iterations =  3.2

     negative rho (up, down):  4.632E-01 1.142E-02

     total cpu time spent up to now is      353.3 secs

     total energy              =   -1940.17882923 Ry
     Harris-Foulkes estimate   =   -1940.21041931 Ry
     estimated scf accuracy    <       0.09060137 Ry

     total magnetization       =     3.00 Bohr mag/cell
     absolute magnetization    =     3.20 Bohr mag/cell

     iteration #  6     ecut=    40.00 Ry     beta= 0.70
     CG style diagonalization
     c_bands:  1 eigenvalues not converged
     ethr =  2.32E-05,  avg # of iterations =  7.5

     negative rho (up, down):  4.746E-01 1.237E-02

     total cpu time spent up to now is      418.1 secs

     total energy              =   -1940.19426328 Ry
     Harris-Foulkes estimate   =   -1940.19545708 Ry
     estimated scf accuracy    <       0.01594518 Ry

     total magnetization       =     3.00 Bohr mag/cell
     absolute magnetization    =     3.19 Bohr mag/cell

     iteration #  7     ecut=    40.00 Ry     beta= 0.70
     CG style diagonalization
     c_bands:  1 eigenvalues not converged
     c_bands:  5 eigenvalues not converged
     ethr =  4.08E-06,  avg # of iterations =  5.9

     negative rho (up, down):  4.800E-01 1.296E-02

     total cpu time spent up to now is      469.8 secs

     total energy              =   -1940.19720037 Ry
     Harris-Foulkes estimate   =   -1940.19844017 Ry
     estimated scf accuracy    <       0.00513446 Ry

     total magnetization       =     3.00 Bohr mag/cell
     absolute magnetization    =     3.18 Bohr mag/cell

     iteration #  8     ecut=    40.00 Ry     beta= 0.70
     CG style diagonalization
     c_bands:  2 eigenvalues not converged
     c_bands:  5 eigenvalues not converged
     ethr =  1.31E-06,  avg # of iterations =  4.0

     negative rho (up, down):  4.818E-01 1.311E-02

     total cpu time spent up to now is      505.4 secs

     total energy              =   -1940.19839244 Ry
     Harris-Foulkes estimate   =   -1940.19863141 Ry
     estimated scf accuracy    <       0.00092865 Ry

     total magnetization       =     3.00 Bohr mag/cell
     absolute magnetization    =     3.17 Bohr mag/cell

     iteration #  9     ecut=    40.00 Ry     beta= 0.70
     CG style diagonalization
     c_bands:  2 eigenvalues not converged
     c_bands:  1 eigenvalues not converged
     ethr =  2.38E-07,  avg # of iterations =  3.8

     negative rho (up, down):  4.824E-01 1.322E-02

     total cpu time spent up to now is      538.7 secs

     total energy              =   -1940.19871928 Ry
     Harris-Foulkes estimate   =   -1940.19884350 Ry
     estimated scf accuracy    <       0.00054146 Ry

     total magnetization       =     3.00 Bohr mag/cell
     absolute magnetization    =     3.17 Bohr mag/cell

     iteration # 10     ecut=    40.00 Ry     beta= 0.70
     CG style diagonalization
     ethr =  1.38E-07,  avg # of iterations =  3.4

     negative rho (up, down):  4.825E-01 1.328E-02

     total cpu time spent up to now is      567.1 secs

     total energy              =   -1940.19884999 Ry
     Harris-Foulkes estimate   =   -1940.19884190 Ry
     estimated scf accuracy    <       0.00003898 Ry

     total magnetization       =     3.00 Bohr mag/cell
     absolute magnetization    =     3.17 Bohr mag/cell

     iteration # 11     ecut=    40.00 Ry     beta= 0.70
     CG style diagonalization
     ethr =  9.97E-09,  avg # of iterations =  3.7

     negative rho (up, down):  4.825E-01 1.331E-02

     total cpu time spent up to now is      599.6 secs

     total energy              =   -1940.19887154 Ry
     Harris-Foulkes estimate   =   -1940.19886557 Ry
     estimated scf accuracy    <       0.00000754 Ry

     total magnetization       =     3.00 Bohr mag/cell
     absolute magnetization    =     3.17 Bohr mag/cell

     iteration # 12     ecut=    40.00 Ry     beta= 0.70
     CG style diagonalization
     ethr =  1.93E-09,  avg # of iterations =  3.8

     negative rho (up, down):  4.826E-01 1.332E-02

     total cpu time spent up to now is      632.9 secs

     total energy              =   -1940.19887613 Ry
     Harris-Foulkes estimate   =   -1940.19887561 Ry
     estimated scf accuracy    <       0.00000221 Ry

     total magnetization       =     3.00 Bohr mag/cell
     absolute magnetization    =     3.17 Bohr mag/cell

     iteration # 13     ecut=    40.00 Ry     beta= 0.70
     CG style diagonalization
     ethr =  5.65E-10,  avg # of iterations =  3.7

     negative rho (up, down):  4.825E-01 1.330E-02

     total cpu time spent up to now is      665.1 secs

     total energy              =   -1940.19887730 Ry
     Harris-Foulkes estimate   =   -1940.19887705 Ry
     estimated scf accuracy    <       0.00000062 Ry

     total magnetization       =     3.00 Bohr mag/cell
     absolute magnetization    =     3.17 Bohr mag/cell

     iteration # 14     ecut=    40.00 Ry     beta= 0.70
     CG style diagonalization
     ethr =  1.59E-10,  avg # of iterations =  3.8

     negative rho (up, down):  4.825E-01 1.330E-02

     total cpu time spent up to now is      698.1 secs

     total energy              =   -1940.19887755 Ry
     Harris-Foulkes estimate   =   -1940.19887766 Ry
     estimated scf accuracy    <       0.00000028 Ry

     total magnetization       =     3.00 Bohr mag/cell
     absolute magnetization    =     3.17 Bohr mag/cell

     iteration # 15     ecut=    40.00 Ry     beta= 0.70
     CG style diagonalization
     ethr =  7.07E-11,  avg # of iterations =  3.4

     negative rho (up, down):  4.825E-01 1.330E-02

     total cpu time spent up to now is      726.4 secs

     total energy              =   -1940.19887761 Ry
     Harris-Foulkes estimate   =   -1940.19887762 Ry
     estimated scf accuracy    <       0.00000005 Ry

     total magnetization       =     3.00 Bohr mag/cell
     absolute magnetization    =     3.17 Bohr mag/cell

     iteration # 16     ecut=    40.00 Ry     beta= 0.70
     CG style diagonalization
     ethr =  1.22E-11,  avg # of iterations =  3.9

     negative rho (up, down):  4.825E-01 1.330E-02

     total cpu time spent up to now is      760.6 secs

     total energy              =   -1940.19887764 Ry
     Harris-Foulkes estimate   =   -1940.19887765 Ry
     estimated scf accuracy    <       0.00000004 Ry

     total magnetization       =     3.00 Bohr mag/cell
     absolute magnetization    =     3.17 Bohr mag/cell

     iteration # 17     ecut=    40.00 Ry     beta= 0.70
     CG style diagonalization
     ethr =  1.09E-11,  avg # of iterations =  3.3

     negative rho (up, down):  4.825E-01 1.330E-02

     total cpu time spent up to now is      788.4 secs

     total energy              =   -1940.19887764 Ry
     Harris-Foulkes estimate   =   -1940.19887765 Ry
     estimated scf accuracy    <          3.0E-09 Ry

     total magnetization       =     3.00 Bohr mag/cell
     absolute magnetization    =     3.17 Bohr mag/cell

     iteration # 18     ecut=    40.00 Ry     beta= 0.70
     CG style diagonalization
     ethr =  7.64E-13,  avg # of iterations =  3.9

     negative rho (up, down):  4.825E-01 1.330E-02

     total cpu time spent up to now is      822.7 secs

     total energy              =   -1940.19887765 Ry
     Harris-Foulkes estimate   =   -1940.19887764 Ry
     estimated scf accuracy    <          6.2E-10 Ry

     total magnetization       =     3.00 Bohr mag/cell
     absolute magnetization    =     3.17 Bohr mag/cell

     iteration # 19     ecut=    40.00 Ry     beta= 0.70
     CG style diagonalization
     ethr =  1.59E-13,  avg # of iterations =  3.8

     negative rho (up, down):  4.825E-01 1.330E-02

     total cpu time spent up to now is      856.1 secs

     total energy              =   -1940.19887765 Ry
     Harris-Foulkes estimate   =   -1940.19887765 Ry
     estimated scf accuracy    <          4.7E-10 Ry

     total magnetization       =     3.00 Bohr mag/cell
     absolute magnetization    =     3.17 Bohr mag/cell

     iteration # 20     ecut=    40.00 Ry     beta= 0.70
     CG style diagonalization
     ethr =  1.19E-13,  avg # of iterations =  3.5

     negative rho (up, down):  4.825E-01 1.330E-02

     total cpu time spent up to now is      886.2 secs

     total energy              =   -1940.19887764 Ry
     Harris-Foulkes estimate   =   -1940.19887765 Ry
     estimated scf accuracy    <          3.4E-11 Ry

     total magnetization       =     3.00 Bohr mag/cell
     absolute magnetization    =     3.17 Bohr mag/cell

     iteration # 21     ecut=    40.00 Ry     beta= 0.70
     CG style diagonalization
     ethr =  1.00E-13,  avg # of iterations =  3.1

     negative rho (up, down):  4.825E-01 1.330E-02

     total cpu time spent up to now is      911.9 secs

     total energy              =   -1940.19887765 Ry
     Harris-Foulkes estimate   =   -1940.19887764 Ry
     estimated scf accuracy    <          3.0E-12 Ry

     total magnetization       =     3.00 Bohr mag/cell
     absolute magnetization    =     3.17 Bohr mag/cell

     iteration # 22     ecut=    40.00 Ry     beta= 0.70
     CG style diagonalization
     ethr =  1.00E-13,  avg # of iterations =  3.1

     negative rho (up, down):  4.825E-01 1.330E-02

     total cpu time spent up to now is      937.5 secs

     total energy              =   -1940.19887764 Ry
     Harris-Foulkes estimate   =   -1940.19887765 Ry
     estimated scf accuracy    <          1.1E-12 Ry

     total magnetization       =     3.00 Bohr mag/cell
     absolute magnetization    =     3.17 Bohr mag/cell

     iteration # 23     ecut=    40.00 Ry     beta= 0.70
     CG style diagonalization
     ethr =  1.00E-13,  avg # of iterations =  3.1

     negative rho (up, down):  4.825E-01 1.330E-02
 
     Magnetic moment per site:
     atom:    1    charge:    0.8565    magn:   -0.0000    constr:    0.0000
     atom:    2    charge:    0.8511    magn:    0.0014    constr:    0.0000
     atom:    3    charge:    0.8521    magn:    0.0012    constr:    0.0000
     atom:    4    charge:    0.8545    magn:    0.0001    constr:    0.0000
     atom:    5    charge:    0.8570    magn:    0.0006    constr:    0.0000
     atom:    6    charge:    0.8556    magn:    0.0000    constr:    0.0000
     atom:    7    charge:    0.8566    magn:    0.0007    constr:    0.0000
     atom:    8    charge:    0.8556    magn:    0.0006    constr:    0.0000
     atom:    9    charge:    0.8568    magn:    0.0003    constr:    0.0000
     atom:   10    charge:    0.8478    magn:    0.0073    constr:    0.0000
     atom:   11    charge:    0.8527    magn:    0.0006    constr:    0.0000
     atom:   12    charge:    0.8573    magn:    0.0004    constr:    0.0000
     atom:   13    charge:    0.8571    magn:   -0.0000    constr:    0.0000
     atom:   14    charge:    0.8556    magn:    0.0000    constr:    0.0000
     atom:   15    charge:    0.8557    magn:    0.0007    constr:    0.0000
     atom:   16    charge:    0.8606    magn:    0.0037    constr:    0.0000
     atom:   17    charge:    0.8681    magn:    0.0133    constr:    0.0000
     atom:   18    charge:    0.8565    magn:    0.0155    constr:    0.0000
     atom:   19    charge:    0.8639    magn:    0.0032    constr:    0.0000
     atom:   20    charge:    0.8573    magn:    0.0004    constr:    0.0000
     atom:   21    charge:    0.8570    magn:    0.0006    constr:    0.0000
     atom:   22    charge:    0.8522    magn:    0.0001    constr:    0.0000
     atom:   23    charge:    0.8490    magn:    0.0004    constr:    0.0000
     atom:   24    charge:    0.8449    magn:    0.0117    constr:    0.0000
     atom:   25    charge:    1.5926    magn:    0.1962    constr:    0.0000
     atom:   26    charge:    0.8565    magn:    0.0155    constr:    0.0000
     atom:   27    charge:    0.8527    magn:    0.0006    constr:    0.0000
     atom:   28    charge:    0.8545    magn:    0.0001    constr:    0.0000
     atom:   29    charge:    0.8523    magn:    0.0006    constr:    0.0000
     atom:   30    charge:    0.8524    magn:    0.0011    constr:    0.0000
     atom:   31    charge:    0.8510    magn:    0.0054    constr:    0.0000
     atom:   32    charge:    0.8449    magn:    0.0117    constr:    0.0000
     atom:   33    charge:    0.8681    magn:    0.0133    constr:    0.0000
     atom:   34    charge:    0.8478    magn:    0.0073    constr:    0.0000
     atom:   35    charge:    0.8521    magn:    0.0012    constr:    0.0000
     atom:   36    charge:    0.8516    magn:    0.0003    constr:    0.0000
     atom:   37    charge:    0.8509    magn:    0.0003    constr:    0.0000
     atom:   38    charge:    0.8524    magn:    0.0011    constr:    0.0000
     atom:   39    charge:    0.8490    magn:    0.0004    constr:    0.0000
     atom:   40    charge:    0.8606    magn:    0.0037    constr:    0.0000
     atom:   41    charge:    0.8568    magn:    0.0003    constr:    0.0000
     atom:   42    charge:    0.8511    magn:    0.0014    constr:    0.0000
     atom:   43    charge:    0.8515    magn:    0.0006    constr:    0.0000
     atom:   44    charge:    0.8516    magn:    0.0003    constr:    0.0000
     atom:   45    charge:    0.8523    magn:    0.0006    constr:    0.0000
     atom:   46    charge:    0.8522    magn:    0.0001    constr:    0.0000
     atom:   47    charge:    0.8557    magn:    0.0007    constr:    0.0000
     atom:   48    charge:    0.8556    magn:    0.0006    constr:    0.0000
     atom:   49    charge:    0.8565    magn:   -0.0000    constr:    0.0000
     atom:   50    charge:    2.6625    magn:    0.0005    constr:    0.0000
     atom:   51    charge:    2.6630    magn:   -0.0005    constr:    0.0000
     atom:   52    charge:    2.6512    magn:    0.0056    constr:    0.0000
     atom:   53    charge:    2.6619    magn:    0.0008    constr:    0.0000
     atom:   54    charge:    2.6631    magn:    0.0004    constr:    0.0000
     atom:   55    charge:    2.6538    magn:    0.0006    constr:    0.0000
     atom:   56    charge:    2.6568    magn:    0.0002    constr:    0.0000
     atom:   57    charge:    2.6589    magn:    0.0018    constr:    0.0000
     atom:   58    charge:    2.6592    magn:    0.0080    constr:    0.0000
     atom:   59    charge:    2.6526    magn:    0.0203    constr:    0.0000
     atom:   60    charge:    2.6522    magn:    0.0098    constr:    0.0000
     atom:   61    charge:    2.6587    magn:    0.0119    constr:    0.0000
     atom:   62    charge:    2.6545    magn:    0.0053    constr:    0.0000
     atom:   63    charge:    2.6538    magn:    0.0006    constr:    0.0000
     atom:   64    charge:    2.6620    magn:    0.0002    constr:    0.0000
     atom:   65    charge:    2.6621    magn:    0.0032    constr:    0.0000
     atom:   66    charge:    2.6609    magn:    0.0206    constr:    0.0000
     atom:   67    charge:    1.7658    magn:    0.1873    constr:    0.0000
     atom:   68    charge:    2.6504    magn:    0.0691    constr:    0.0000
     atom:   69    charge:    2.6587    magn:    0.0119    constr:    0.0000
     atom:   70    charge:    2.6631    magn:    0.0004    constr:    0.0000
     atom:   71    charge:    2.6622    magn:    0.0002    constr:    0.0000
     atom:   72    charge:    2.6571    magn:    0.0000    constr:    0.0000
     atom:   73    charge:    2.6520    magn:    0.0088    constr:    0.0000
     atom:   74    charge:    2.6247    magn:    0.0855    constr:    0.0000
     atom:   75    charge:    1.7658    magn:    0.1873    constr:    0.0000
     atom:   76    charge:    2.6522    magn:    0.0098    constr:    0.0000
     atom:   77    charge:    2.6619    magn:    0.0008    constr:    0.0000
     atom:   78    charge:    2.6598    magn:    0.0002    constr:    0.0000
     atom:   79    charge:    2.6564    magn:    0.0000    constr:    0.0000
     atom:   80    charge:    2.6491    magn:    0.0034    constr:    0.0000
     atom:   81    charge:    2.6520    magn:    0.0088    constr:    0.0000
     atom:   82    charge:    2.6609    magn:    0.0206    constr:    0.0000
     atom:   83    charge:    2.6526    magn:    0.0203    constr:    0.0000
     atom:   84    charge:    2.6512    magn:    0.0056    constr:    0.0000
     atom:   85    charge:    2.6588    magn:    0.0003    constr:    0.0000
     atom:   86    charge:    2.6579    magn:    0.0000    constr:    0.0000
     atom:   87    charge:    2.6564    magn:    0.0000    constr:    0.0000
     atom:   88    charge:    2.6571    magn:    0.0000    constr:    0.0000
     atom:   89    charge:    2.6621    magn:    0.0032    constr:    0.0000
     atom:   90    charge:    2.6592    magn:    0.0080    constr:    0.0000
     atom:   91    charge:    2.6630    magn:   -0.0005    constr:    0.0000
     atom:   92    charge:    2.6635    magn:   -0.0001    constr:    0.0000
     atom:   93    charge:    2.6588    magn:    0.0003    constr:    0.0000
     atom:   94    charge:    2.6598    magn:    0.0002    constr:    0.0000
     atom:   95    charge:    2.6622    magn:    0.0002    constr:    0.0000
     atom:   96    charge:    2.6620    magn:    0.0002    constr:    0.0000
     atom:   97    charge:    2.6589    magn:    0.0018    constr:    0.0000
     atom:   98    charge:    2.6625    magn:    0.0005    constr:    0.0000

     total cpu time spent up to now is      963.4 secs

     End of self-consistent calculation

 ------ SPIN UP ------------


          k = 0.0000 0.0000 0.0000 ( 77483 PWs)   bands (ev):

   -21.8560 -21.6355 -21.3798 -21.3720 -21.3553 -21.2948 -21.2779 -20.8796
   -20.6472 -20.6352 -20.6138 -20.5377 -20.5326 -20.4140 -20.2817 -20.2799
   -20.2642 -20.1245 -20.1111 -19.5890 -19.4043 -19.3897 -19.3809 -19.3776
   -19.3679 -19.3591 -19.3579 -19.3170 -19.3083 -19.1632 -19.1492 -19.0262
   -18.9609 -18.9578 -18.9360 -18.7655 -18.7603 -18.5390 -18.5322 -18.5127
   -18.5123 -18.4568 -18.4186 -18.3829 -18.3532 -18.3317 -18.3289 -16.9468
   -15.1109 -13.2222 -12.7673 -12.7648 -12.7355 -12.7063 -12.6994 -12.6421
   -12.5507 -12.5200 -12.5136 -12.4889 -12.4099 -12.1471 -12.0554 -12.0505
   -12.0141 -11.9838 -11.9426 -11.5647 -11.4197 -11.4085 -11.3813 -11.3805
   -11.3544 -11.3544 -11.3495 -11.3126 -11.2986 -11.1014 -11.0604 -10.8686
   -10.7104 -10.6957 -10.6675 -10.6550 -10.5123 -10.0688 -10.0283 -10.0034
    -9.9334  -9.8801  -9.8204  -9.3931  -9.3540  -9.3147  -9.3104  -9.2778
    -9.2661  -9.2146  -9.0555  -8.9953  -8.9497  -8.9091  -8.8980  -8.8891
    -8.8860  -8.8793  -8.8705  -8.8473  -8.8179  -8.8167  -8.8124  -8.8121
    -8.7962  -8.7909  -8.7902  -8.7566  -8.7518  -8.7284  -8.6636  -8.6422
    -8.4705  -8.4677  -8.2033  -8.1792  -8.1763  -8.1099  -8.0831  -8.0111
    -7.8785  -7.8233  -7.8229  -7.7960  -7.7507  -7.7296  -7.5613  -7.5073
    -7.4900  -7.4676  -7.4584  -7.4370  -7.4213  -7.3890  -7.3859  -7.3399
    -7.3376  -7.3351  -7.3266  -7.2802  -7.2732  -7.2309  -7.2231  -7.0410
    -7.0194  -6.9871  -6.9158  -6.8244  -6.6625  -6.5661  -6.3158  -6.1874
    -6.1776  -6.1437  -6.0823  -6.0783  -6.0700  -6.0576  -6.0540  -6.0488
    -6.0368  -6.0312  -6.0218  -5.9970  -5.9382  -5.8335  -5.8231  -5.7331
    -5.5428  -5.4449  -5.4396  -5.4354  -5.3896  -5.2932  -5.1808  -5.1464
    -4.8020  -4.7906  -4.7706  -4.7534  -4.7176  -4.6704  -4.5682  -4.5141
    -4.5103  -4.4902  -4.4886  -3.8074  -0.2881   0.1796   0.6627   0.6706
     0.7084   0.7223   0.7248   0.7325   0.7935   0.7941   0.8093   0.8154
     0.8201   0.8333   0.8391   0.8497   0.8703   0.8872   0.9099   0.9147
     0.9367   1.1103   1.1927   1.2140   1.2299   1.2477   1.2891   1.3222
     1.3279   1.3316   1.3417   1.3526   1.3798   1.4379   1.4402   1.4434
     1.4503   1.4578   1.4745   1.8836   2.0379   2.0964   2.1008   2.1120
     2.1123   2.1248   2.1314   2.2073   2.2358

 ------ SPIN DOWN ----------


          k = 0.0000 0.0000 0.0000 ( 77483 PWs)   bands (ev):

   -21.7538 -21.5411 -21.3745 -21.3650 -21.3496 -21.2769 -21.2250 -20.8203
   -20.6374 -20.6169 -20.6011 -20.5272 -20.5123 -20.3983 -20.2676 -20.2638
   -20.2401 -20.0890 -20.0749 -19.5438 -19.3948 -19.3791 -19.3746 -19.3688
   -19.3586 -19.3514 -19.3382 -19.2909 -19.2863 -19.1386 -19.1358 -19.0108
   -18.9492 -18.9488 -18.9099 -18.7447 -18.7313 -18.5255 -18.5195 -18.4992
   -18.4908 -18.4469 -18.3966 -18.3750 -18.3437 -18.3222 -18.3088 -16.3988
   -14.5987 -13.0443 -12.7561 -12.7489 -12.7281 -12.6992 -12.6931 -12.6271
   -12.5399 -12.5072 -12.4996 -12.4495 -12.3854 -12.1252 -12.0430 -12.0361
   -12.0028 -11.9593 -11.9148 -11.5202 -11.3948 -11.3840 -11.3734 -11.3631
   -11.3499 -11.3420 -11.3409 -11.2896 -11.2668 -11.0315 -11.0067 -10.8436
   -10.7016 -10.6905 -10.6527 -10.6208 -10.4782 -10.0449 -10.0053  -9.9848
    -9.9025  -9.8415  -9.7858  -9.3742  -9.2963  -9.2821  -9.2785  -9.2667
    -9.2591  -9.2052  -9.0291  -8.9255  -8.8926  -8.8920  -8.8829  -8.8727
    -8.8645  -8.8623  -8.8347  -8.8273  -8.8054  -8.8052  -8.8052  -8.7877
    -8.7822  -8.7801  -8.7786  -8.7042  -8.6973  -8.6253  -8.6002  -8.5390
    -8.4444  -8.4090  -8.1997  -8.1732  -8.1730  -8.0603  -8.0536  -7.8487
    -7.8237  -7.8002  -7.7752  -7.7646  -7.6842  -7.6401  -7.5347  -7.4926
    -7.4784  -7.4526  -7.4328  -7.4182  -7.3804  -7.3796  -7.3702  -7.3272
    -7.3028  -7.2965  -7.2727  -7.2637  -7.2019  -7.1358  -7.0691  -7.0142
    -7.0108  -6.9809  -6.8342  -6.7627  -6.6219  -6.5198  -6.1744  -6.1642
    -6.1391  -6.1292  -6.0561  -6.0429  -6.0352  -6.0305  -6.0288  -6.0231
    -6.0116  -5.9926  -5.9479  -5.9408  -5.7942  -5.7502  -5.7435  -5.6865
    -5.4775  -5.4200  -5.4071  -5.3853  -5.1892  -5.1763  -5.0733  -5.0052
    -4.7554  -4.7435  -4.7247  -4.7193  -4.6384  -4.6072  -4.5297  -4.4850
    -4.4696  -4.4626  -3.8180  -2.6918   0.1894   0.5393   0.7133   0.7252
     0.7368   0.7546   0.7699   0.7748   0.7932   0.8112   0.8156   0.8218
     0.8317   0.8384   0.8608   0.8746   0.9070   0.9410   0.9420   0.9701
     1.0455   1.1945   1.2541   1.2832   1.2888   1.3222   1.3264   1.3313
     1.3420   1.3457   1.3491   1.3863   1.4110   1.4358   1.4376   1.4412
     1.4485   1.4566   1.4852   1.8893   2.1025   2.1063   2.1154   2.1232
     2.1456   2.2258   2.3156   2.3232   2.3579

     highest occupied, lowest unoccupied level (ev):    -0.2881   -3.8180

!    total energy              =   -1940.19887765 Ry
     Harris-Foulkes estimate   =   -1940.19887764 Ry
     estimated scf accuracy    <          7.5E-13 Ry

     total all-electron energy =     -7770.023354 Ry

     The total energy is the sum of the following terms:

     one-electron contribution =  -10643.38565862 Ry
     hartree contribution      =    5407.46662424 Ry
     xc contribution           =    -430.72469793 Ry
     ewald contribution        =    4369.89002876 Ry
     DFT-D3 Dispersion         =      -0.27011583 Ry
     one-center paw contrib.   =    -643.17505827 Ry

     total magnetization       =     3.00 Bohr mag/cell
     absolute magnetization    =     3.17 Bohr mag/cell

     convergence has been achieved in  23 iterations

     negative rho (up, down):  4.825E-01 1.330E-02

     Forces acting on atoms (cartesian axes, Ry/au):

     atom    1 type  1   force =    -0.00001180   -0.00001084    0.00000000
     atom    2 type  1   force =     0.00000718   -0.00003004    0.00000000
     atom    3 type  1   force =     0.00000354   -0.00001685    0.00000000
     atom    4 type  1   force =     0.00002902   -0.00001996    0.00000000
     atom    5 type  1   force =     0.00002586   -0.00000398    0.00000000
     atom    6 type  1   force =     0.00002271   -0.00000708    0.00000000
     atom    7 type  1   force =     0.00003144   -0.00001034    0.00000000
     atom    8 type  1   force =     0.00003282    0.00000515    0.00000000
     atom    9 type  1   force =     0.00000634   -0.00002264    0.00000000
     atom   10 type  1   force =     0.00001011   -0.00002063    0.00000000
     atom   11 type  1   force =     0.00000963   -0.00000278    0.00000000
     atom   12 type  1   force =     0.00002433    0.00000821    0.00000000
     atom   13 type  1   force =     0.00002582   -0.00001311    0.00000000
     atom   14 type  1   force =     0.00001904   -0.00001234    0.00000000
     atom   15 type  1   force =     0.00001650   -0.00001681    0.00000000
     atom   16 type  1   force =    -0.00000340    0.00000436    0.00000000
     atom   17 type  1   force =    -0.00001383   -0.00004335    0.00000000
     atom   18 type  1   force =    -0.00002178    0.00002201    0.00000000
     atom   19 type  1   force =    -0.00000782    0.00000487    0.00000000
     atom   20 type  1   force =     0.00000510   -0.00002331    0.00000000
     atom   21 type  1   force =     0.00001662   -0.00002108    0.00000000
     atom   22 type  1   force =     0.00002989    0.00001095    0.00000000
     atom   23 type  1   force =     0.00000963   -0.00000361    0.00000000
     atom   24 type  1   force =    -0.00002012   -0.00003929    0.00000000
     atom   25 type  4   force =    -0.00000709    0.00000530    0.00000000
     atom   26 type  1   force =    -0.00003127    0.00000661    0.00000000
     atom   27 type  1   force =     0.00000418   -0.00000770    0.00000000
     atom   28 type  1   force =     0.00002789   -0.00001564    0.00000000
     atom   29 type  1   force =     0.00001673    0.00003041    0.00000000
     atom   30 type  1   force =    -0.00001699    0.00001660    0.00000000
     atom   31 type  1   force =    -0.00000546    0.00000417    0.00000000
     atom   32 type  1   force =     0.00002526    0.00003552    0.00000000
     atom   33 type  1   force =     0.00003108    0.00002794    0.00000000
     atom   34 type  1   force =     0.00001972   -0.00000299    0.00000000
     atom   35 type  1   force =     0.00001044    0.00000602    0.00000000
     atom   36 type  1   force =     0.00000454    0.00001587    0.00000000
     atom   37 type  1   force =     0.00000485   -0.00000160    0.00000000
     atom   38 type  1   force =    -0.00002172    0.00000717    0.00000000
     atom   39 type  1   force =     0.00000823   -0.00000834    0.00000000
     atom   40 type  1   force =    -0.00000519   -0.00000584    0.00000000
     atom   41 type  1   force =     0.00002157   -0.00000008    0.00000000
     atom   42 type  1   force =     0.00002699    0.00001319    0.00000000
     atom   43 type  1   force =    -0.00000238    0.00000831    0.00000000
     atom   44 type  1   force =    -0.00000580   -0.00001010    0.00000000
     atom   45 type  1   force =    -0.00001444   -0.00003234    0.00000000
     atom   46 type  1   force =     0.00000454   -0.00003364    0.00000000
     atom   47 type  1   force =     0.00002219   -0.00000921    0.00000000
     atom   48 type  1   force =     0.00001515   -0.00003126    0.00000000
     atom   49 type  1   force =     0.00000977    0.00002751    0.00000000
     atom   50 type  2   force =    -0.00001115   -0.00000935    0.00000000
     atom   51 type  2   force =    -0.00000839   -0.00001774    0.00000000
     atom   52 type  2   force =    -0.00002146   -0.00000944    0.00000000
     atom   53 type  2   force =    -0.00002707    0.00000402    0.00000000
     atom   54 type  2   force =     0.00000270   -0.00000397    0.00000000
     atom   55 type  2   force =     0.00000126   -0.00001105    0.00000000
     atom   56 type  2   force =    -0.00000943    0.00000149    0.00000000
     atom   57 type  2   force =    -0.00000369    0.00000636    0.00000000
     atom   58 type  2   force =    -0.00001225   -0.00000426    0.00000000
     atom   59 type  2   force =    -0.00001654   -0.00001007    0.00000000
     atom   60 type  2   force =    -0.00002443   -0.00000453    0.00000000
     atom   61 type  2   force =    -0.00000367   -0.00000310    0.00000000
     atom   62 type  2   force =     0.00001654   -0.00001108    0.00000000
     atom   63 type  2   force =     0.00000959    0.00000229    0.00000000
     atom   64 type  2   force =    -0.00000599    0.00000442    0.00000000
     atom   65 type  2   force =    -0.00001790   -0.00000341    0.00000000
     atom   66 type  2   force =    -0.00001883   -0.00000156    0.00000000
     atom   67 type  3   force =    -0.00001656   -0.00000248    0.00000000
     atom   68 type  2   force =    -0.00000880    0.00000582    0.00000000
     atom   69 type  2   force =     0.00000240    0.00000400    0.00000000
     atom   70 type  2   force =     0.00000641   -0.00000032    0.00000000
     atom   71 type  2   force =    -0.00001431    0.00000087    0.00000000
     atom   72 type  2   force =    -0.00002079   -0.00000312    0.00000000
     atom   73 type  2   force =    -0.00002254   -0.00000341    0.00000000
     atom   74 type  2   force =    -0.00002298    0.00001280    0.00000000
     atom   75 type  5   force =    -0.00000588    0.00001485    0.00000000
     atom   76 type  2   force =    -0.00000497    0.00002592    0.00000000
     atom   77 type  2   force =    -0.00001135    0.00002250    0.00000000
     atom   78 type  2   force =    -0.00000614    0.00000473    0.00000000
     atom   79 type  2   force =    -0.00001531   -0.00000249    0.00000000
     atom   80 type  2   force =    -0.00001502    0.00000745    0.00000000
     atom   81 type  2   force =    -0.00000961    0.00002112    0.00000000
     atom   82 type  2   force =    -0.00000838    0.00002137    0.00000000
     atom   83 type  2   force =     0.00000352    0.00002661    0.00000000
     atom   84 type  2   force =     0.00000256    0.00002484    0.00000000
     atom   85 type  2   force =     0.00000656    0.00000076    0.00000000
     atom   86 type  2   force =    -0.00000867    0.00000131    0.00000000
     atom   87 type  2   force =    -0.00000721    0.00001358    0.00000000
     atom   88 type  2   force =    -0.00000730    0.00002021    0.00000000
     atom   89 type  2   force =    -0.00000614    0.00002172    0.00000000
     atom   90 type  2   force =    -0.00000393    0.00001886    0.00000000
     atom   91 type  2   force =     0.00000870    0.00001413    0.00000000
     atom   92 type  2   force =    -0.00000741   -0.00000568    0.00000000
     atom   93 type  2   force =    -0.00000430   -0.00001279    0.00000000
     atom   94 type  2   force =    -0.00001163    0.00000469    0.00000000
     atom   95 type  2   force =    -0.00000848    0.00001533    0.00000000
     atom   96 type  2   force =    -0.00000585    0.00000544    0.00000000
     atom   97 type  2   force =    -0.00001042    0.00000156    0.00000000
     atom   98 type  2   force =    -0.00000508    0.00000738    0.00000000

     Total force =     0.000219     Total SCF correction =     0.000001


     Computing stress (Cartesian axis) and pressure


     negative rho (up, down):  4.825E-01 1.330E-02
          total   stress  (Ry/bohr**3)                   (kbar)     P=   -0.16
   0.00000003   0.00000000   0.00000000          0.00      0.00      0.00
   0.00000000   0.00000003   0.00000000          0.00      0.00      0.00
   0.00000000   0.00000000  -0.00000335          0.00      0.00     -0.49


     BFGS Geometry Optimization

     number of scf cycles    =   1
     number of bfgs steps    =   0

     enthalpy new            =   -1940.1988776482 Ry

     new trust radius        =       0.0000455032 bohr
     new conv_thr            =            1.0E-12 Ry

     new unit-cell volume =  36237.83307 a.u.^3 (  5369.89277 Ang^3 )
     density =      0.36304 g/cm^3

CELL_PARAMETERS (alat= 33.23461096)
   1.001046831   0.000225185   0.000000000
  -0.500328402   0.867044572   0.000000000
   0.000000000   0.000000000   1.137203616

ATOMIC_POSITIONS (crystal)
B        0.047242984   0.094634585   0.500000000
B        0.047302712   0.237736242   0.500000000
B        0.047259474   0.380903228   0.500000000
B        0.047165625   0.523736280   0.500000000
B        0.047651869   0.666619239   0.500000000
B        0.047939714   0.809603950   0.500000000
B        0.047723453   0.952276775   0.500000000
B        0.189892895   0.094259309   0.500000000
B        0.189086807   0.236345484   0.500000000
B        0.189982633   0.380648844   0.500000000
B        0.189387770   0.523714124   0.500000000
B        0.189690561   0.666800624   0.500000000
B        0.190390173   0.809609839   0.500000000
B        0.190396107   0.952060357   0.500000000
B        0.333202688   0.094302841   0.500000000
B        0.332563180   0.235895950   0.500000000
B        0.331022756   0.376698337   0.500000000
B        0.332104730   0.525219615   0.500000000
B        0.331933873   0.668066122   0.500000000
B        0.333199351   0.810309441   0.500000000
B        0.333380712   0.952348098   0.500000000
B        0.476257883   0.095148728   0.500000000
B        0.476016187   0.237685087   0.500000000
B        0.474989586   0.379733209   0.500000000
C2       0.477681508   0.522318554   0.500000000
B        0.474780365   0.667895253   0.500000000
B        0.476285806   0.810612205   0.500000000
B        0.476263610   0.952834347   0.500000000
B        0.618981237   0.095314759   0.500000000
B        0.619002555   0.238057473   0.500000000
B        0.619026627   0.380973388   0.500000000
B        0.620266808   0.525010405   0.500000000
B        0.623301653   0.668977197   0.500000000
B        0.619351076   0.810017318   0.500000000
B        0.619096669   0.952740538   0.500000000
B        0.761864688   0.095332107   0.500000000
B        0.761815658   0.238184359   0.500000000
B        0.761942529   0.380997436   0.500000000
B        0.762314901   0.523983773   0.500000000
B        0.764104011   0.667436731   0.500000000
B        0.763654468   0.810913130   0.500000000
B        0.762263772   0.952697390   0.500000000
B        0.904818546   0.095181658   0.500000000
B        0.904667997   0.238135340   0.500000000
B        0.904685252   0.381018682   0.500000000
B        0.904851231   0.523742041   0.500000000
B        0.905697122   0.666797252   0.500000000
B        0.905740751   0.810107131   0.500000000
B        0.905365631   0.952757247   0.500000000
N        0.094945816   0.047154736   0.500000000
N        0.094326190   0.189520103   0.500000000
N        0.094825220   0.333099715   0.500000000
N        0.094458514   0.476033870   0.500000000
N        0.094756066   0.618906503   0.500000000
N        0.095300044   0.761857900   0.500000000
N        0.095332910   0.904666989   0.500000000
N        0.237945130   0.047042150   0.500000000
N        0.237245192   0.189120245   0.500000000
N        0.236303242   0.331230986   0.500000000
N        0.236897912   0.476208773   0.500000000
N        0.236849968   0.619240528   0.500000000
N        0.237885154   0.762114765   0.500000000
N        0.238142032   0.904699885   0.500000000
N        0.381111576   0.047318820   0.500000000
N        0.380878533   0.189214118   0.500000000
N        0.379824732   0.330200264   0.500000000
C1       0.382257580   0.475594090   0.500000000
N        0.379004464   0.620995557   0.500000000
N        0.380759467   0.763150004   0.500000000
N        0.381093471   0.905243906   0.500000000
N        0.523928685   0.047862974   0.500000000
N        0.523864030   0.190470099   0.500000000
N        0.523619571   0.333456424   0.500000000
N        0.523312027   0.476687974   0.500000000
C3       0.524405943   0.617742439   0.500000000
N        0.523791302   0.763102140   0.500000000
N        0.523966199   0.905541497   0.500000000
N        0.666696131   0.047870131   0.500000000
N        0.666611671   0.190570506   0.500000000
N        0.666549911   0.333450038   0.500000000
N        0.666543553   0.476380424   0.500000000
N        0.669799788   0.620175373   0.500000000
N        0.668769153   0.763696937   0.500000000
N        0.666900387   0.905174836   0.500000000
N        0.809611652   0.047808227   0.500000000
N        0.809433503   0.190566396   0.500000000
N        0.809429439   0.333388293   0.500000000
N        0.809529905   0.476135964   0.500000000
N        0.810785920   0.619121552   0.500000000
N        0.810879802   0.762754949   0.500000000
N        0.810479863   0.905673806   0.500000000
N        0.952397558   0.047602196   0.500000000
N        0.952191626   0.190388243   0.500000000
N        0.952129814   0.333303886   0.500000000
N        0.952137032   0.476071335   0.500000000
N        0.952681198   0.618888439   0.500000000
N        0.952957817   0.762054906   0.500000000
N        0.952845104   0.905054087   0.500000000



     Writing output data file C2Cn.save/
     NEW-OLD atomic charge density approx. for the potential
     NEW k-points:
   0.0000000   0.0000000   0.0000000   1.0000000
   0.0000000   0.0000000   0.0000000   1.0000000

     Check: negative core charge=   -0.000006

     negative rho (up, down):  4.825E-01 6.847E-03
     extrapolated charge  391.00051, renormalised to  391.00000

     total cpu time spent up to now is      982.8 secs

     Self-consistent Calculation

     iteration #  1     ecut=    40.00 Ry     beta= 0.70
     CG style diagonalization
     ethr =  1.00E-06,  avg # of iterations =  2.0

     Threshold (ethr) on eigenvalues was too large:
     Diagonalizing with lowered threshold

     CG style diagonalization
     ethr =  5.25E-12,  avg # of iterations = 14.7

     negative rho (up, down):  4.825E-01 1.233E-02

     total cpu time spent up to now is     1157.5 secs

     total energy              =   -1940.19887972 Ry
     Harris-Foulkes estimate   =   -1940.18538186 Ry
     estimated scf accuracy    <       0.00000003 Ry

     total magnetization       =     3.00 Bohr mag/cell
     absolute magnetization    =     3.17 Bohr mag/cell

     iteration #  2     ecut=    40.00 Ry     beta= 0.70
     CG style diagonalization
     ethr =  7.54E-12,  avg # of iterations =  4.0

     negative rho (up, down):  4.825E-01 1.270E-02

     total cpu time spent up to now is     1193.0 secs

     total energy              =   -1940.19887920 Ry
     Harris-Foulkes estimate   =   -1940.19887975 Ry
     estimated scf accuracy    <       0.00000002 Ry

     total magnetization       =     3.00 Bohr mag/cell
     absolute magnetization    =     3.17 Bohr mag/cell

     iteration #  3     ecut=    40.00 Ry     beta= 0.70
     CG style diagonalization
     ethr =  4.85E-12,  avg # of iterations =  3.6

     negative rho (up, down):  4.825E-01 1.308E-02

     total cpu time spent up to now is     1223.7 secs

     total energy              =   -1940.19887829 Ry
     Harris-Foulkes estimate   =   -1940.19887920 Ry
     estimated scf accuracy    <          3.7E-09 Ry

     total magnetization       =     3.00 Bohr mag/cell
     absolute magnetization    =     3.17 Bohr mag/cell

     iteration #  4     ecut=    40.00 Ry     beta= 0.70
     CG style diagonalization
     ethr =  9.45E-13,  avg # of iterations =  3.8

     negative rho (up, down):  4.825E-01 1.326E-02

     total cpu time spent up to now is     1256.8 secs

     total energy              =   -1940.19887781 Ry
     Harris-Foulkes estimate   =   -1940.19887830 Ry
     estimated scf accuracy    <          3.6E-09 Ry

     total magnetization       =     3.00 Bohr mag/cell
     absolute magnetization    =     3.17 Bohr mag/cell

     iteration #  5     ecut=    40.00 Ry     beta= 0.70
     CG style diagonalization
     ethr =  9.22E-13,  avg # of iterations =  3.3

     negative rho (up, down):  4.825E-01 1.328E-02

     total cpu time spent up to now is     1284.2 secs

     total energy              =   -1940.19887774 Ry
     Harris-Foulkes estimate   =   -1940.19887781 Ry
     estimated scf accuracy    <          1.9E-10 Ry

     total magnetization       =     3.00 Bohr mag/cell
     absolute magnetization    =     3.17 Bohr mag/cell

     iteration #  6     ecut=    40.00 Ry     beta= 0.70
     CG style diagonalization
     ethr =  1.00E-13,  avg # of iterations =  3.5

     negative rho (up, down):  4.825E-01 1.330E-02

     total cpu time spent up to now is     1313.3 secs

     total energy              =   -1940.19887768 Ry
     Harris-Foulkes estimate   =   -1940.19887774 Ry
     estimated scf accuracy    <          2.8E-11 Ry

     total magnetization       =     3.00 Bohr mag/cell
     absolute magnetization    =     3.17 Bohr mag/cell

     iteration #  7     ecut=    40.00 Ry     beta= 0.70
     CG style diagonalization
     ethr =  1.00E-13,  avg # of iterations =  3.1

     negative rho (up, down):  4.825E-01 1.330E-02

     total cpu time spent up to now is     1339.0 secs

     total energy              =   -1940.19887768 Ry
     Harris-Foulkes estimate   =   -1940.19887768 Ry
     estimated scf accuracy    <          4.0E-12 Ry

     total magnetization       =     3.00 Bohr mag/cell
     absolute magnetization    =     3.17 Bohr mag/cell

     iteration #  8     ecut=    40.00 Ry     beta= 0.70
     CG style diagonalization
     ethr =  1.00E-13,  avg # of iterations =  3.1

     negative rho (up, down):  4.825E-01 1.330E-02

     total cpu time spent up to now is     1364.6 secs

     total energy              =   -1940.19887768 Ry
     Harris-Foulkes estimate   =   -1940.19887768 Ry
     estimated scf accuracy    <          1.0E-12 Ry

     total magnetization       =     3.00 Bohr mag/cell
     absolute magnetization    =     3.17 Bohr mag/cell

     iteration #  9     ecut=    40.00 Ry     beta= 0.70
     CG style diagonalization
     ethr =  1.00E-13,  avg # of iterations =  3.0

     negative rho (up, down):  4.825E-01 1.330E-02
 
     Magnetic moment per site:
     atom:    1    charge:    0.8565    magn:   -0.0000    constr:    0.0000
     atom:    2    charge:    0.8511    magn:    0.0014    constr:    0.0000
     atom:    3    charge:    0.8521    magn:    0.0012    constr:    0.0000
     atom:    4    charge:    0.8545    magn:    0.0001    constr:    0.0000
     atom:    5    charge:    0.8570    magn:    0.0006    constr:    0.0000
     atom:    6    charge:    0.8556    magn:    0.0000    constr:    0.0000
     atom:    7    charge:    0.8567    magn:    0.0007    constr:    0.0000
     atom:    8    charge:    0.8556    magn:    0.0006    constr:    0.0000
     atom:    9    charge:    0.8568    magn:    0.0003    constr:    0.0000
     atom:   10    charge:    0.8478    magn:    0.0073    constr:    0.0000
     atom:   11    charge:    0.8527    magn:    0.0006    constr:    0.0000
     atom:   12    charge:    0.8574    magn:    0.0004    constr:    0.0000
     atom:   13    charge:    0.8571    magn:   -0.0000    constr:    0.0000
     atom:   14    charge:    0.8556    magn:    0.0000    constr:    0.0000
     atom:   15    charge:    0.8557    magn:    0.0007    constr:    0.0000
     atom:   16    charge:    0.8606    magn:    0.0037    constr:    0.0000
     atom:   17    charge:    0.8681    magn:    0.0133    constr:    0.0000
     atom:   18    charge:    0.8565    magn:    0.0155    constr:    0.0000
     atom:   19    charge:    0.8639    magn:    0.0032    constr:    0.0000
     atom:   20    charge:    0.8574    magn:    0.0004    constr:    0.0000
     atom:   21    charge:    0.8570    magn:    0.0006    constr:    0.0000
     atom:   22    charge:    0.8522    magn:    0.0001    constr:    0.0000
     atom:   23    charge:    0.8490    magn:    0.0004    constr:    0.0000
     atom:   24    charge:    0.8449    magn:    0.0117    constr:    0.0000
     atom:   25    charge:    1.5926    magn:    0.1962    constr:    0.0000
     atom:   26    charge:    0.8565    magn:    0.0155    constr:    0.0000
     atom:   27    charge:    0.8527    magn:    0.0006    constr:    0.0000
     atom:   28    charge:    0.8545    magn:    0.0001    constr:    0.0000
     atom:   29    charge:    0.8523    magn:    0.0006    constr:    0.0000
     atom:   30    charge:    0.8524    magn:    0.0011    constr:    0.0000
     atom:   31    charge:    0.8510    magn:    0.0054    constr:    0.0000
     atom:   32    charge:    0.8449    magn:    0.0117    constr:    0.0000
     atom:   33    charge:    0.8681    magn:    0.0133    constr:    0.0000
     atom:   34    charge:    0.8478    magn:    0.0073    constr:    0.0000
     atom:   35    charge:    0.8521    magn:    0.0012    constr:    0.0000
     atom:   36    charge:    0.8516    magn:    0.0003    constr:    0.0000
     atom:   37    charge:    0.8509    magn:    0.0003    constr:    0.0000
     atom:   38    charge:    0.8524    magn:    0.0011    constr:    0.0000
     atom:   39    charge:    0.8490    magn:    0.0004    constr:    0.0000
     atom:   40    charge:    0.8606    magn:    0.0037    constr:    0.0000
     atom:   41    charge:    0.8568    magn:    0.0003    constr:    0.0000
     atom:   42    charge:    0.8511    magn:    0.0014    constr:    0.0000
     atom:   43    charge:    0.8515    magn:    0.0006    constr:    0.0000
     atom:   44    charge:    0.8516    magn:    0.0003    constr:    0.0000
     atom:   45    charge:    0.8523    magn:    0.0006    constr:    0.0000
     atom:   46    charge:    0.8522    magn:    0.0001    constr:    0.0000
     atom:   47    charge:    0.8557    magn:    0.0007    constr:    0.0000
     atom:   48    charge:    0.8556    magn:    0.0006    constr:    0.0000
     atom:   49    charge:    0.8565    magn:   -0.0000    constr:    0.0000
     atom:   50    charge:    2.6625    magn:    0.0005    constr:    0.0000
     atom:   51    charge:    2.6630    magn:   -0.0005    constr:    0.0000
     atom:   52    charge:    2.6512    magn:    0.0056    constr:    0.0000
     atom:   53    charge:    2.6619    magn:    0.0008    constr:    0.0000
     atom:   54    charge:    2.6631    magn:    0.0004    constr:    0.0000
     atom:   55    charge:    2.6538    magn:    0.0006    constr:    0.0000
     atom:   56    charge:    2.6568    magn:    0.0002    constr:    0.0000
     atom:   57    charge:    2.6589    magn:    0.0018    constr:    0.0000
     atom:   58    charge:    2.6592    magn:    0.0080    constr:    0.0000
     atom:   59    charge:    2.6526    magn:    0.0203    constr:    0.0000
     atom:   60    charge:    2.6522    magn:    0.0098    constr:    0.0000
     atom:   61    charge:    2.6587    magn:    0.0119    constr:    0.0000
     atom:   62    charge:    2.6545    magn:    0.0053    constr:    0.0000
     atom:   63    charge:    2.6538    magn:    0.0006    constr:    0.0000
     atom:   64    charge:    2.6620    magn:    0.0002    constr:    0.0000
     atom:   65    charge:    2.6621    magn:    0.0032    constr:    0.0000
     atom:   66    charge:    2.6609    magn:    0.0206    constr:    0.0000
     atom:   67    charge:    1.7658    magn:    0.1873    constr:    0.0000
     atom:   68    charge:    2.6504    magn:    0.0690    constr:    0.0000
     atom:   69    charge:    2.6587    magn:    0.0119    constr:    0.0000
     atom:   70    charge:    2.6631    magn:    0.0004    constr:    0.0000
     atom:   71    charge:    2.6622    magn:    0.0002    constr:    0.0000
     atom:   72    charge:    2.6571    magn:    0.0000    constr:    0.0000
     atom:   73    charge:    2.6520    magn:    0.0088    constr:    0.0000
     atom:   74    charge:    2.6247    magn:    0.0855    constr:    0.0000
     atom:   75    charge:    1.7658    magn:    0.1873    constr:    0.0000
     atom:   76    charge:    2.6522    magn:    0.0098    constr:    0.0000
     atom:   77    charge:    2.6619    magn:    0.0008    constr:    0.0000
     atom:   78    charge:    2.6598    magn:    0.0002    constr:    0.0000
     atom:   79    charge:    2.6564    magn:    0.0000    constr:    0.0000
     atom:   80    charge:    2.6491    magn:    0.0034    constr:    0.0000
     atom:   81    charge:    2.6520    magn:    0.0088    constr:    0.0000
     atom:   82    charge:    2.6609    magn:    0.0206    constr:    0.0000
     atom:   83    charge:    2.6526    magn:    0.0203    constr:    0.0000
     atom:   84    charge:    2.6512    magn:    0.0056    constr:    0.0000
     atom:   85    charge:    2.6588    magn:    0.0003    constr:    0.0000
     atom:   86    charge:    2.6579    magn:    0.0000    constr:    0.0000
     atom:   87    charge:    2.6564    magn:    0.0000    constr:    0.0000
     atom:   88    charge:    2.6571    magn:    0.0000    constr:    0.0000
     atom:   89    charge:    2.6621    magn:    0.0032    constr:    0.0000
     atom:   90    charge:    2.6592    magn:    0.0080    constr:    0.0000
     atom:   91    charge:    2.6630    magn:   -0.0005    constr:    0.0000
     atom:   92    charge:    2.6635    magn:   -0.0001    constr:    0.0000
     atom:   93    charge:    2.6588    magn:    0.0003    constr:    0.0000
     atom:   94    charge:    2.6598    magn:    0.0002    constr:    0.0000
     atom:   95    charge:    2.6622    magn:    0.0002    constr:    0.0000
     atom:   96    charge:    2.6620    magn:    0.0002    constr:    0.0000
     atom:   97    charge:    2.6589    magn:    0.0018    constr:    0.0000
     atom:   98    charge:    2.6625    magn:    0.0005    constr:    0.0000

     total cpu time spent up to now is     1388.8 secs

     End of self-consistent calculation

 ------ SPIN UP ------------


          k = 0.0000 0.0000 0.0000 ( 77483 PWs)   bands (ev):

   -21.8559 -21.6355 -21.3797 -21.3720 -21.3553 -21.2948 -21.2779 -20.8796
   -20.6472 -20.6352 -20.6138 -20.5376 -20.5326 -20.4140 -20.2817 -20.2799
   -20.2642 -20.1245 -20.1111 -19.5890 -19.4043 -19.3897 -19.3809 -19.3776
   -19.3680 -19.3591 -19.3579 -19.3170 -19.3083 -19.1632 -19.1492 -19.0263
   -18.9610 -18.9577 -18.9360 -18.7655 -18.7603 -18.5390 -18.5323 -18.5128
   -18.5123 -18.4568 -18.4186 -18.3829 -18.3533 -18.3317 -18.3289 -16.9467
   -15.1109 -13.2222 -12.7673 -12.7648 -12.7356 -12.7063 -12.6994 -12.6421
   -12.5507 -12.5200 -12.5136 -12.4889 -12.4099 -12.1471 -12.0553 -12.0505
   -12.0141 -11.9838 -11.9426 -11.5647 -11.4197 -11.4085 -11.3812 -11.3805
   -11.3544 -11.3544 -11.3495 -11.3126 -11.2986 -11.1014 -11.0604 -10.8686
[...]
     atom:   55    charge:    2.6538    magn:    0.0006    constr:    0.0000
     atom:   56    charge:    2.6568    magn:    0.0002    constr:    0.0000
     atom:   57    charge:    2.6589    magn:    0.0018    constr:    0.0000
     atom:   58    charge:    2.6592    magn:    0.0080    constr:    0.0000
     atom:   59    charge:    2.6526    magn:    0.0203    constr:    0.0000
     atom:   60    charge:    2.6522    magn:    0.0098    constr:    0.0000
     atom:   61    charge:    2.6587    magn:    0.0119    constr:    0.0000
     atom:   62    charge:    2.6545    magn:    0.0053    constr:    0.0000
     atom:   63    charge:    2.6538    magn:    0.0006    constr:    0.0000
     atom:   64    charge:    2.6620    magn:    0.0002    constr:    0.0000
     atom:   65    charge:    2.6621    magn:    0.0032    constr:    0.0000
     atom:   66    charge:    2.6609    magn:    0.0206    constr:    0.0000
     atom:   67    charge:    1.7658    magn:    0.1873    constr:    0.0000
     atom:   68    charge:    2.6504    magn:    0.0690    constr:    0.0000
     atom:   69    charge:    2.6587    magn:    0.0119    constr:    0.0000
     atom:   70    charge:    2.6631    magn:    0.0004    constr:    0.0000
     atom:   71    charge:    2.6622    magn:    0.0002    constr:    0.0000
     atom:   72    charge:    2.6571    magn:    0.0000    constr:    0.0000
     atom:   73    charge:    2.6520    magn:    0.0088    constr:    0.0000
     atom:   74    charge:    2.6247    magn:    0.0855    constr:    0.0000
     atom:   75    charge:    1.7658    magn:    0.1873    constr:    0.0000
     atom:   76    charge:    2.6522    magn:    0.0098    constr:    0.0000
     atom:   77    charge:    2.6619    magn:    0.0008    constr:    0.0000
     atom:   78    charge:    2.6598    magn:    0.0002    constr:    0.0000
     atom:   79    charge:    2.6564    magn:    0.0000    constr:    0.0000
     atom:   80    charge:    2.6491    magn:    0.0034    constr:    0.0000
     atom:   81    charge:    2.6520    magn:    0.0088    constr:    0.0000
     atom:   82    charge:    2.6609    magn:    0.0206    constr:    0.0000
     atom:   83    charge:    2.6526    magn:    0.0203    constr:    0.0000
     atom:   84    charge:    2.6512    magn:    0.0056    constr:    0.0000
     atom:   85    charge:    2.6588    magn:    0.0003    constr:    0.0000
     atom:   86    charge:    2.6579    magn:    0.0000    constr:    0.0000
     atom:   87    charge:    2.6564    magn:    0.0000    constr:    0.0000
     atom:   88    charge:    2.6571    magn:    0.0000    constr:    0.0000
     atom:   89    charge:    2.6621    magn:    0.0032    constr:    0.0000
     atom:   90    charge:    2.6592    magn:    0.0080    constr:    0.0000
     atom:   91    charge:    2.6630    magn:   -0.0005    constr:    0.0000
     atom:   92    charge:    2.6635    magn:   -0.0001    constr:    0.0000
     atom:   93    charge:    2.6588    magn:    0.0003    constr:    0.0000
     atom:   94    charge:    2.6598    magn:    0.0002    constr:    0.0000
     atom:   95    charge:    2.6622    magn:    0.0002    constr:    0.0000
     atom:   96    charge:    2.6620    magn:    0.0002    constr:    0.0000
     atom:   97    charge:    2.6589    magn:    0.0018    constr:    0.0000
     atom:   98    charge:    2.6625    magn:    0.0005    constr:    0.0000

     total cpu time spent up to now is     4940.4 secs

     End of self-consistent calculation

 ------ SPIN UP ------------


          k = 0.0000 0.0000 0.0000 ( 77483 PWs)   bands (ev):

   -21.8559 -21.6354 -21.3797 -21.3720 -21.3553 -21.2948 -21.2779 -20.8796
   -20.6472 -20.6352 -20.6138 -20.5376 -20.5326 -20.4140 -20.2817 -20.2799
   -20.2642 -20.1245 -20.1111 -19.5890 -19.4043 -19.3897 -19.3810 -19.3776
   -19.3680 -19.3591 -19.3579 -19.3170 -19.3083 -19.1632 -19.1491 -19.0263
   -18.9610 -18.9577 -18.9360 -18.7655 -18.7603 -18.5390 -18.5323 -18.5128
   -18.5123 -18.4568 -18.4186 -18.3829 -18.3533 -18.3317 -18.3289 -16.9466
   -15.1108 -13.2221 -12.7673 -12.7648 -12.7356 -12.7063 -12.6994 -12.6421
   -12.5507 -12.5200 -12.5136 -12.4889 -12.4099 -12.1471 -12.0553 -12.0505
   -12.0141 -11.9838 -11.9426 -11.5647 -11.4197 -11.4085 -11.3812 -11.3805
   -11.3544 -11.3544 -11.3495 -11.3126 -11.2986 -11.1014 -11.0604 -10.8686
   -10.7104 -10.6957 -10.6675 -10.6550 -10.5123 -10.0688 -10.0283 -10.0034
    -9.9334  -9.8801  -9.8204  -9.3931  -9.3540  -9.3147  -9.3104  -9.2778
    -9.2661  -9.2146  -9.0555  -8.9952  -8.9497  -8.9091  -8.8980  -8.8891
    -8.8860  -8.8794  -8.8705  -8.8473  -8.8178  -8.8167  -8.8124  -8.8121
    -8.7962  -8.7909  -8.7903  -8.7566  -8.7518  -8.7284  -8.6636  -8.6421
    -8.4705  -8.4676  -8.2032  -8.1792  -8.1763  -8.1099  -8.0830  -8.0111
    -7.8785  -7.8233  -7.8229  -7.7960  -7.7507  -7.7296  -7.5613  -7.5073
    -7.4900  -7.4676  -7.4585  -7.4371  -7.4212  -7.3890  -7.3858  -7.3399
    -7.3376  -7.3351  -7.3267  -7.2803  -7.2732  -7.2309  -7.2231  -7.0409
    -7.0194  -6.9871  -6.9159  -6.8244  -6.6625  -6.5661  -6.3158  -6.1875
    -6.1775  -6.1436  -6.0823  -6.0783  -6.0700  -6.0576  -6.0541  -6.0488
    -6.0368  -6.0312  -6.0218  -5.9971  -5.9382  -5.8335  -5.8231  -5.7331
    -5.5429  -5.4449  -5.4396  -5.4354  -5.3896  -5.2932  -5.1808  -5.1464
    -4.8020  -4.7906  -4.7706  -4.7534  -4.7176  -4.6703  -4.5683  -4.5141
    -4.5103  -4.4902  -4.4885  -3.8074  -0.2881   0.1796   0.6627   0.6705
     0.7084   0.7222   0.7248   0.7325   0.7935   0.7941   0.8093   0.8154
     0.8201   0.8333   0.8391   0.8497   0.8703   0.8872   0.9099   0.9147
     0.9367   1.1102   1.1926   1.2139   1.2298   1.2477   1.2891   1.3221
     1.3279   1.3316   1.3417   1.3525   1.3798   1.4379   1.4402   1.4433
     1.4503   1.4577   1.4745   1.8836   2.0375   2.0963   2.1010   2.1121
     2.1189   2.1311   2.2976   2.3271   2.3449

 ------ SPIN DOWN ----------


          k = 0.0000 0.0000 0.0000 ( 77483 PWs)   bands (ev):

   -21.7537 -21.5410 -21.3745 -21.3650 -21.3497 -21.2769 -21.2250 -20.8203
   -20.6374 -20.6169 -20.6011 -20.5272 -20.5123 -20.3983 -20.2676 -20.2639
   -20.2402 -20.0890 -20.0749 -19.5438 -19.3947 -19.3791 -19.3746 -19.3688
   -19.3586 -19.3514 -19.3382 -19.2909 -19.2863 -19.1386 -19.1357 -19.0108
   -18.9491 -18.9489 -18.9099 -18.7447 -18.7314 -18.5255 -18.5195 -18.4993
   -18.4908 -18.4469 -18.3966 -18.3750 -18.3437 -18.3222 -18.3088 -16.3986
   -14.5986 -13.0442 -12.7561 -12.7489 -12.7281 -12.6992 -12.6931 -12.6271
   -12.5399 -12.5071 -12.4996 -12.4495 -12.3854 -12.1252 -12.0430 -12.0361
   -12.0028 -11.9593 -11.9148 -11.5202 -11.3948 -11.3840 -11.3734 -11.3631
   -11.3499 -11.3420 -11.3409 -11.2896 -11.2668 -11.0315 -11.0067 -10.8436
   -10.7016 -10.6905 -10.6527 -10.6207 -10.4782 -10.0450 -10.0054  -9.9847
    -9.9025  -9.8415  -9.7858  -9.3742  -9.2963  -9.2822  -9.2785  -9.2667
    -9.2591  -9.2052  -9.0291  -8.9255  -8.8926  -8.8920  -8.8830  -8.8727
    -8.8645  -8.8623  -8.8347  -8.8273  -8.8054  -8.8052  -8.8051  -8.7877
    -8.7822  -8.7801  -8.7786  -8.7042  -8.6973  -8.6253  -8.6002  -8.5390
    -8.4444  -8.4090  -8.1997  -8.1732  -8.1731  -8.0603  -8.0536  -7.8488
    -7.8237  -7.8002  -7.7752  -7.7646  -7.6841  -7.6401  -7.5347  -7.4927
    -7.4783  -7.4526  -7.4329  -7.4182  -7.3803  -7.3797  -7.3701  -7.3273
    -7.3028  -7.2965  -7.2727  -7.2637  -7.2019  -7.1358  -7.0691  -7.0142
    -7.0108  -6.9809  -6.8342  -6.7627  -6.6219  -6.5198  -6.1745  -6.1642
    -6.1391  -6.1291  -6.0561  -6.0429  -6.0352  -6.0304  -6.0288  -6.0231
    -6.0116  -5.9926  -5.9479  -5.9408  -5.7942  -5.7502  -5.7435  -5.6864
    -5.4775  -5.4200  -5.4071  -5.3853  -5.1892  -5.1763  -5.0733  -5.0052
    -4.7554  -4.7436  -4.7247  -4.7192  -4.6384  -4.6072  -4.5297  -4.4850
    -4.4696  -4.4626  -3.8179  -2.6918   0.1894   0.5393   0.7133   0.7252
     0.7368   0.7545   0.7699   0.7747   0.7931   0.8112   0.8156   0.8218
     0.8317   0.8384   0.8608   0.8745   0.9070   0.9410   0.9420   0.9701
     1.0455   1.1944   1.2541   1.2832   1.2888   1.3222   1.3264   1.3313
     1.3420   1.3457   1.3491   1.3863   1.4110   1.4358   1.4376   1.4412
     1.4484   1.4566   1.4851   1.8892   2.1025   2.1066   2.1151   2.1234
     2.3132   2.3484   2.3622   2.4154   2.4432

     highest occupied, lowest unoccupied level (ev):    -0.2881   -3.8179

!    total energy              =   -1940.19887769 Ry
     Harris-Foulkes estimate   =   -1940.19887771 Ry
     estimated scf accuracy    <          8.7E-15 Ry

     total all-electron energy =     -7770.023354 Ry

     The total energy is the sum of the following terms:

     one-electron contribution =  -10643.35584626 Ry
     hartree contribution      =    5407.45155094 Ry
     xc contribution           =    -430.72441977 Ry
     ewald contribution        =    4369.87500544 Ry
     DFT-D3 Dispersion         =      -0.27011529 Ry
     one-center paw contrib.   =    -643.17505275 Ry

     total magnetization       =     3.00 Bohr mag/cell
     absolute magnetization    =     3.17 Bohr mag/cell

     convergence has been achieved in  31 iterations

     negative rho (up, down):  4.825E-01 1.330E-02

     Forces acting on atoms (cartesian axes, Ry/au):

     atom    1 type  1   force =     0.00000011   -0.00002067    0.00000000
     atom    2 type  1   force =    -0.00000079   -0.00001220    0.00000000
     atom    3 type  1   force =    -0.00000632    0.00000015    0.00000000
     atom    4 type  1   force =    -0.00000773    0.00000002    0.00000000
     atom    5 type  1   force =    -0.00000044   -0.00001173    0.00000000
     atom    6 type  1   force =    -0.00000166   -0.00000487    0.00000000
     atom    7 type  1   force =    -0.00000546   -0.00000623    0.00000000
     atom    8 type  1   force =    -0.00000435   -0.00001648    0.00000000
     atom    9 type  1   force =    -0.00000754   -0.00001559    0.00000000
     atom   10 type  1   force =    -0.00001104   -0.00000774    0.00000000
     atom   11 type  1   force =    -0.00001264   -0.00000687    0.00000000
     atom   12 type  1   force =    -0.00000644   -0.00000923    0.00000000
     atom   13 type  1   force =     0.00000342   -0.00000432    0.00000000
     atom   14 type  1   force =     0.00000134   -0.00000150    0.00000000
     atom   15 type  1   force =     0.00000381   -0.00000746    0.00000000
     atom   16 type  1   force =    -0.00000659   -0.00000687    0.00000000
     atom   17 type  1   force =    -0.00001240   -0.00000035    0.00000000
     atom   18 type  1   force =    -0.00001088    0.00000043    0.00000000
     atom   19 type  1   force =    -0.00000018   -0.00000023    0.00000000
     atom   20 type  1   force =     0.00000494    0.00000811    0.00000000
     atom   21 type  1   force =     0.00001044    0.00000616    0.00000000
     atom   22 type  1   force =    -0.00000327   -0.00000801    0.00000000
     atom   23 type  1   force =    -0.00001402   -0.00000544    0.00000000
     atom   24 type  1   force =    -0.00001700    0.00000440    0.00000000
     atom   25 type  4   force =    -0.00001126    0.00000544    0.00000000
     atom   26 type  1   force =    -0.00000467    0.00001072    0.00000000
     atom   27 type  1   force =     0.00000274    0.00001569    0.00000000
     atom   28 type  1   force =     0.00000102    0.00000733    0.00000000
     atom   29 type  1   force =    -0.00000770   -0.00000604    0.00000000
     atom   30 type  1   force =    -0.00001699    0.00000059    0.00000000
     atom   31 type  1   force =    -0.00002331    0.00001281    0.00000000
     atom   32 type  1   force =    -0.00001316    0.00001438    0.00000000
     atom   33 type  1   force =    -0.00000577    0.00001668    0.00000000
     atom   34 type  1   force =     0.00000487    0.00001846    0.00000000
     atom   35 type  1   force =     0.00000318    0.00000503    0.00000000
     atom   36 type  1   force =     0.00000014   -0.00000584    0.00000000
     atom   37 type  1   force =    -0.00000855    0.00000337    0.00000000
     atom   38 type  1   force =    -0.00001043    0.00001443    0.00000000
     atom   39 type  1   force =    -0.00000258    0.00001774    0.00000000
     atom   40 type  1   force =     0.00000321    0.00001637    0.00000000
     atom   41 type  1   force =     0.00001170    0.00002035    0.00000000
     atom   42 type  1   force =     0.00001301    0.00000169    0.00000000
     atom   43 type  1   force =     0.00000573   -0.00001113    0.00000000
     atom   44 type  1   force =    -0.00000125    0.00000040    0.00000000
     atom   45 type  1   force =    -0.00000271    0.00001304    0.00000000
     atom   46 type  1   force =     0.00000519    0.00001061    0.00000000
     atom   47 type  1   force =     0.00000883    0.00000425    0.00000000
     atom   48 type  1   force =     0.00000906    0.00001158    0.00000000
     atom   49 type  1   force =     0.00001133   -0.00000322    0.00000000
     atom   50 type  2   force =     0.00001344    0.00000289    0.00000000
     atom   51 type  2   force =    -0.00000048   -0.00000198    0.00000000
     atom   52 type  2   force =    -0.00000138   -0.00001438    0.00000000
     atom   53 type  2   force =     0.00001041   -0.00001407    0.00000000
     atom   54 type  2   force =     0.00001833   -0.00000335    0.00000000
     atom   55 type  2   force =     0.00002134   -0.00000130    0.00000000
     atom   56 type  2   force =     0.00002575   -0.00000996    0.00000000
     atom   57 type  2   force =     0.00001154   -0.00000844    0.00000000
     atom   58 type  2   force =    -0.00000012   -0.00000052    0.00000000
     atom   59 type  2   force =    -0.00000931   -0.00001564    0.00000000
     atom   60 type  2   force =    -0.00000344   -0.00000993    0.00000000
     atom   61 type  2   force =     0.00000747   -0.00000336    0.00000000
     atom   62 type  2   force =     0.00001158   -0.00000489    0.00000000
     atom   63 type  2   force =     0.00001263   -0.00001452    0.00000000
     atom   64 type  2   force =     0.00001058   -0.00000556    0.00000000
     atom   65 type  2   force =    -0.00000041    0.00000102    0.00000000
     atom   66 type  2   force =    -0.00001182   -0.00000789    0.00000000
     atom   67 type  3   force =    -0.00001117   -0.00000556    0.00000000
     atom   68 type  2   force =    -0.00000931    0.00000485    0.00000000
     atom   69 type  2   force =     0.00000502   -0.00000406    0.00000000
     atom   70 type  2   force =     0.00001001   -0.00001376    0.00000000
     atom   71 type  2   force =     0.00001345    0.00000743    0.00000000
     atom   72 type  2   force =     0.00000504    0.00001264    0.00000000
     atom   73 type  2   force =    -0.00000246    0.00000180    0.00000000
     atom   74 type  2   force =    -0.00000361    0.00000249    0.00000000
     atom   75 type  5   force =    -0.00000139    0.00001273    0.00000000
     atom   76 type  2   force =     0.00000323    0.00000491    0.00000000
     atom   77 type  2   force =     0.00001114   -0.00000335    0.00000000
     atom   78 type  2   force =     0.00000486    0.00001559    0.00000000
     atom   79 type  2   force =    -0.00000282    0.00001952    0.00000000
     atom   80 type  2   force =    -0.00000899    0.00000638    0.00000000
     atom   81 type  2   force =    -0.00000183    0.00000107    0.00000000
     atom   82 type  2   force =     0.00000027    0.00000925    0.00000000
     atom   83 type  2   force =     0.00000516    0.00000747    0.00000000
     atom   84 type  2   force =     0.00000612    0.00000626    0.00000000
     atom   85 type  2   force =    -0.00000292    0.00001521    0.00000000
     atom   86 type  2   force =    -0.00000682    0.00000826    0.00000000
     atom   87 type  2   force =    -0.00001596   -0.00000628    0.00000000
     atom   88 type  2   force =    -0.00000865   -0.00001211    0.00000000
     atom   89 type  2   force =    -0.00000117   -0.00000555    0.00000000
     atom   90 type  2   force =     0.00000148   -0.00000639    0.00000000
     atom   91 type  2   force =     0.00000382    0.00000378    0.00000000
     atom   92 type  2   force =    -0.00000323    0.00001319    0.00000000
     atom   93 type  2   force =    -0.00000683    0.00000258    0.00000000
     atom   94 type  2   force =    -0.00000615   -0.00001383    0.00000000
     atom   95 type  2   force =     0.00000129   -0.00001938    0.00000000
     atom   96 type  2   force =     0.00000976   -0.00000946    0.00000000
     atom   97 type  2   force =     0.00001682   -0.00000726    0.00000000
     atom   98 type  2   force =     0.00001280   -0.00000474    0.00000000

     Total force =     0.000133     Total SCF correction =     0.000000


     Computing stress (Cartesian axis) and pressure


     negative rho (up, down):  4.825E-01 1.330E-02
          total   stress  (Ry/bohr**3)                   (kbar)     P=   -0.16
   0.00000001  -0.00000001   0.00000000          0.00     -0.00      0.00
  -0.00000001   0.00000001   0.00000000         -0.00      0.00      0.00
   0.00000000   0.00000000  -0.00000335          0.00      0.00     -0.49


     Writing output data file C2Cn.save/
 
     init_run     :      8.70s CPU     11.53s WALL (       2 calls)
     electrons    :   4633.97s CPU   4677.95s WALL (       5 calls)
     update_pot   :      8.93s CPU      8.97s WALL (       3 calls)
     forces       :     17.21s CPU     17.56s WALL (       5 calls)
     stress       :     58.85s CPU     59.20s WALL (       5 calls)

     Called by init_run:
     wfcinit      :      3.47s CPU      6.07s WALL (       2 calls)
     potinit      :      1.80s CPU      1.97s WALL (       2 calls)
     hinit0       :      2.56s CPU      2.59s WALL (       2 calls)

     Called by electrons:
     c_bands      :   4483.03s CPU   4521.06s WALL (     145 calls)
     sum_band     :     82.06s CPU     83.94s WALL (     145 calls)
     v_of_rho     :     24.90s CPU     25.56s WALL (     147 calls)
     newd         :     10.07s CPU     11.26s WALL (     147 calls)
     PAW_pot      :     27.07s CPU     27.34s WALL (     150 calls)
     mix_rho      :      2.96s CPU      3.22s WALL (     145 calls)

     Called by c_bands:
     init_us_2    :      5.29s CPU      5.42s WALL (     610 calls)
     rcgdiagg     :   4331.39s CPU   4366.72s WALL (     305 calls)
     wfcrot       :    150.12s CPU    152.59s WALL (     293 calls)

     Called by sum_band:
     sum_band:bec :      0.20s CPU      0.20s WALL (     296 calls)
     addusdens    :      9.43s CPU     10.43s WALL (     145 calls)

     Called by *cgdiagg:
     h_psi        :   2223.69s CPU   2242.76s WALL (  192326 calls)
     s_psi        :   1301.69s CPU   1312.27s WALL (  384359 calls)
     rdiaghg      :      4.60s CPU      4.73s WALL (     293 calls)

     Called by h_psi:
     h_psi:pot    :   2221.26s CPU   2240.31s WALL (  192326 calls)
     h_psi:calbec :    782.48s CPU    789.11s WALL (  192326 calls)
     vloc_psi     :    773.22s CPU    781.70s WALL (  192326 calls)
     add_vuspsi   :    663.73s CPU    668.17s WALL (  192326 calls)
     hs_1psi      :   2743.08s CPU   2765.18s WALL (  192033 calls)
     s_1psi       :   1339.83s CPU   1350.45s WALL (  192033 calls)

     General routines
     calbec       :   1477.07s CPU   1490.24s WALL (  384705 calls)
     fft          :     20.57s CPU     20.82s WALL (    2663 calls)
     ffts         :      1.05s CPU      1.07s WALL (     290 calls)
     fftw         :    739.01s CPU    747.25s WALL (  492398 calls)
 
     Parallel routines
     fft_scatt_xy :     72.32s CPU     72.89s WALL (  495351 calls)
     fft_scatt_yz :    235.98s CPU    239.04s WALL (  495351 calls)
 
     PWSCF        :      1h18m CPU      1h22m WALL

 
   This run was terminated on:  11:53:14   9Jun2021            

=------------------------------------------------------------------------------=
   JOB DONE.
=------------------------------------------------------------------------------=
