
     Program PWSCF v.6.4.1 starts on  9Jun2021 at  0:25:46 

     This program is part of the open-source Quantum ESPRESSO suite
     for quantum simulation of materials; please cite
         "P. Giannozzi et al., J. Phys.:Condens. Matter 21 395502 (2009);
         "P. Giannozzi et al., J. Phys.:Condens. Matter 29 465901 (2017);
          URL http://www.quantum-espresso.org", 
     in publications or presentations arising from this work. More details at
     http://www.quantum-espresso.org/quote

     Parallel version (MPI), running on    64 processors

     MPI processes distributed on     2 nodes
     R & G space division:  proc/nbgrp/npool/nimage =      64
     Waiting for input...
     Reading input from standard input

     Current dimensions of program PWSCF are:
     Max number of different atomic species (ntypx) = 10
     Max number of k-points (npk) =  40000
     Max angular momentum in pseudopotentials (lmaxx) =  3
               file N.pbe-n-kjpaw_psl.1.0.0.UPF: wavefunction(s)  2S renormalized
               file C.pbe-n-kjpaw_psl.1.0.0.UPF: wavefunction(s)  2S 2P renormalized
               file C.pbe-n-kjpaw_psl.1.0.0.UPF: wavefunction(s)  2S 2P renormalized
               file C.pbe-n-kjpaw_psl.1.0.0.UPF: wavefunction(s)  2S 2P renormalized

     --------------------------------------------
     Parameters for DFT-D3 Dispersion Correction:
     --------------------------------------------
       Reference C6 values for interpolation: 

         atom   Coordination number   C6
         B          0.000           214.36
         B          0.971           150.74
         B          1.944           106.23
         B          2.913            62.89
         B          4.586            56.06
         C1         0.000            98.23
         C1         0.987            86.49
         C1         1.998            58.72
         C1         2.999            51.56
         C1         3.984            36.41
         C2         0.000            98.23
         C2         0.987            86.49
         C2         1.998            58.72
         C2         2.999            51.56
         C2         3.984            36.41
         C3         0.000            98.23
         C3         0.987            86.49
         C3         1.998            58.72
         C3         2.999            51.56
         C3         3.984            36.41
         N          0.000            50.54
         N          0.994            44.25
         N          2.014            39.35
         N          2.990            31.16

       Values used:

         atom   Coordination number  R0_AB[au]  C6      C8
         B          3.323            3.039     62.90   2506.30
         B          3.323            3.039     62.90   2506.30
         B          3.323            3.039     62.90   2506.30
         B          3.323            3.039     62.90   2506.31
         B          3.323            3.039     62.90   2506.30
         B          3.323            3.039     62.90   2506.30
         B          3.323            3.039     62.90   2506.30
         B          3.323            3.039     62.90   2506.30
         B          3.323            3.039     62.90   2506.30
         B          3.325            3.039     62.90   2506.25
         B          3.323            3.039     62.90   2506.30
         B          3.323            3.039     62.90   2506.30
         B          3.323            3.039     62.90   2506.30
         B          3.323            3.039     62.90   2506.30
         B          3.323            3.039     62.90   2506.30
         B          3.323            3.039     62.90   2506.30
         B          3.317            3.039     62.90   2506.45
         B          3.319            3.039     62.90   2506.40
         B          3.323            3.039     62.90   2506.29
         B          3.323            3.039     62.90   2506.30
         B          3.323            3.039     62.90   2506.30
         B          3.323            3.039     62.90   2506.30
         B          3.323            3.039     62.90   2506.30
         B          3.317            3.039     62.90   2506.43
         C2         3.274            2.750     49.03   1417.98
         B          3.319            3.039     62.90   2506.40
         B          3.323            3.039     62.90   2506.30
         B          3.323            3.039     62.90   2506.31
         B          3.323            3.039     62.90   2506.30
         B          3.323            3.039     62.90   2506.30
         B          3.323            3.039     62.90   2506.30
         B          3.317            3.039     62.90   2506.43
         B          3.317            3.039     62.90   2506.45
         B          3.325            3.039     62.90   2506.25
         B          3.323            3.039     62.90   2506.30
         B          3.323            3.039     62.90   2506.30
         B          3.323            3.039     62.90   2506.30
         B          3.323            3.039     62.90   2506.30
         B          3.323            3.039     62.90   2506.30
         B          3.323            3.039     62.90   2506.30
         B          3.323            3.039     62.90   2506.30
         B          3.323            3.039     62.90   2506.30
         B          3.323            3.039     62.90   2506.30
         B          3.323            3.039     62.90   2506.30
         B          3.323            3.039     62.90   2506.30
         B          3.323            3.039     62.90   2506.30
         B          3.323            3.039     62.90   2506.30
         B          3.323            3.039     62.90   2506.30
         B          3.323            3.039     62.90   2506.30
         N          3.129            2.478     31.22    688.75
         N          3.129            2.478     31.22    688.75
         N          3.129            2.478     31.22    688.75
         N          3.129            2.478     31.22    688.75
         N          3.129            2.478     31.22    688.75
         N          3.129            2.478     31.22    688.75
         N          3.129            2.478     31.22    688.75
         N          3.129            2.478     31.22    688.75
         N          3.129            2.478     31.22    688.75
         N          3.136            2.478     31.22    688.68
         N          3.136            2.478     31.22    688.68
         N          3.129            2.478     31.22    688.75
         N          3.129            2.478     31.22    688.75
         N          3.129            2.478     31.22    688.75
         N          3.129            2.478     31.22    688.75
         N          3.129            2.478     31.22    688.75
         N          3.135            2.478     31.22    688.68
         C1         3.195            2.750     50.11   1449.31
         N          3.143            2.478     31.21    688.62
         N          3.129            2.478     31.22    688.75
         N          3.129            2.478     31.22    688.75
         N          3.129            2.478     31.22    688.75
         N          3.129            2.478     31.22    688.75
         N          3.129            2.478     31.22    688.75
         N          3.143            2.478     31.21    688.62
         C3         3.195            2.750     50.11   1449.31
         N          3.136            2.478     31.22    688.68
         N          3.129            2.478     31.22    688.75
         N          3.129            2.478     31.22    688.75
         N          3.129            2.478     31.22    688.75
         N          3.129            2.478     31.22    688.75
         N          3.129            2.478     31.22    688.75
         N          3.135            2.478     31.22    688.68
         N          3.136            2.478     31.22    688.68
         N          3.129            2.478     31.22    688.75
         N          3.129            2.478     31.22    688.75
         N          3.129            2.478     31.22    688.75
         N          3.129            2.478     31.22    688.75
         N          3.129            2.478     31.22    688.75
         N          3.129            2.478     31.22    688.75
         N          3.129            2.478     31.22    688.75
         N          3.129            2.478     31.22    688.75
         N          3.129            2.478     31.22    688.75
         N          3.129            2.478     31.22    688.75
         N          3.129            2.478     31.22    688.75
         N          3.129            2.478     31.22    688.75
         N          3.129            2.478     31.22    688.75
         N          3.129            2.478     31.22    688.75
         N          3.129            2.478     31.22    688.75

         Molecular C6 ( Ry / a.u.^6 ) =    437644.59


     gamma-point specific algorithms are used

     Subspace diagonalization in iterative solution of the eigenvalue problem:
     one sub-group per band group will be used
     scalapack distributed-memory algorithm (size of sub-group:  5*  5 procs)

     Message from routine setup:
     DEPRECATED: symmetry with ibrav=0, use correct ibrav instead
 
     Parallelization info
     --------------------
     sticks:   dense  smooth     PW     G-vecs:    dense   smooth      PW
     Min         188     188     46                19260    19260    2398
     Max         190     190     48                19286    19286    2416
     Sum       12145   12145   3049              1233789  1233789  154157
 


     bravais-lattice index     =            0
     lattice parameter (alat)  =      33.2346  a.u.
     unit-cell volume          =   36104.5892 (a.u.)^3
     number of atoms/cell      =           98
     number of atomic types    =            5
     number of electrons       =       391.00
     number of Kohn-Sham states=          245
     kinetic-energy cutoff     =      40.0000  Ry
     charge density cutoff     =     160.0000  Ry
     convergence threshold     =      1.0E-06
     mixing beta               =       0.7000
     number of iterations used =            8  plain     mixing
     Exchange-correlation      = SLA PW PBX PBC ( 1  4  3  4 0 0)
     Using LIBXC version       =    4   3   4
     nstep                     =           50


     celldm(1)=  33.234611  celldm(2)=   0.000000  celldm(3)=   0.000000
     celldm(4)=   0.000000  celldm(5)=   0.000000  celldm(6)=   0.000000

     crystal axes: (cart. coord. in units of alat)
               a(1) = (   0.999334   0.000000   0.000000 )  
               a(2) = (  -0.499667   0.865449   0.000000 )  
               a(3) = (   0.000000   0.000000   1.137204 )  

     reciprocal axes: (cart. coord. in units 2 pi/alat)
               b(1) = (  1.000666  0.577735  0.000000 )  
               b(2) = (  0.000000  1.155470  0.000000 )  
               b(3) = (  0.000000  0.000000  0.879350 )  


     PseudoPot. # 1 for B  read from file:
     ./pseudo/B.pbe-n-kjpaw_psl.1.0.0.UPF
     MD5 check sum: 8c825a5969375aca5c2c6ad5945b3059
     Pseudo is Projector augmented-wave + core cor, Zval =  3.0
     Generated using "atomic" code by A. Dal Corso v.6.3
     Shape of augmentation charge: PSQ
     Using radial grid of 1059 points,  4 beta functions with: 
                l(1) =   0
                l(2) =   0
                l(3) =   1
                l(4) =   1
     Q(r) pseudized with 0 coefficients 


     PseudoPot. # 2 for N  read from file:
     ./pseudo/N.pbe-n-kjpaw_psl.1.0.0.UPF
     MD5 check sum: 14c48229446f9f2d411169a3abcbc3fa
     Pseudo is Projector augmented-wave + core cor, Zval =  5.0
     Generated using "atomic" code by A. Dal Corso v.6.3
     Shape of augmentation charge: PSQ
     Using radial grid of 1085 points,  4 beta functions with: 
                l(1) =   0
                l(2) =   0
                l(3) =   1
                l(4) =   1
     Q(r) pseudized with 0 coefficients 


     PseudoPot. # 3 for C  read from file:
     ./pseudo/C.pbe-n-kjpaw_psl.1.0.0.UPF
     MD5 check sum: 5f16ad9a65e90284d1d834d4ab3b0f7d
     Pseudo is Projector augmented-wave + core cor, Zval =  4.0
     Generated using "atomic" code by A. Dal Corso v.6.3
     Shape of augmentation charge: PSQ
     Using radial grid of 1073 points,  4 beta functions with: 
                l(1) =   0
                l(2) =   0
                l(3) =   1
                l(4) =   1
     Q(r) pseudized with 0 coefficients 


     PseudoPot. # 4 for C  read from file:
     ./pseudo/C.pbe-n-kjpaw_psl.1.0.0.UPF
     MD5 check sum: 5f16ad9a65e90284d1d834d4ab3b0f7d
     Pseudo is Projector augmented-wave + core cor, Zval =  4.0
     Generated using "atomic" code by A. Dal Corso v.6.3
     Shape of augmentation charge: PSQ
     Using radial grid of 1073 points,  4 beta functions with: 
                l(1) =   0
                l(2) =   0
                l(3) =   1
                l(4) =   1
     Q(r) pseudized with 0 coefficients 


     PseudoPot. # 5 for C  read from file:
     ./pseudo/C.pbe-n-kjpaw_psl.1.0.0.UPF
     MD5 check sum: 5f16ad9a65e90284d1d834d4ab3b0f7d
     Pseudo is Projector augmented-wave + core cor, Zval =  4.0
     Generated using "atomic" code by A. Dal Corso v.6.3
     Shape of augmentation charge: PSQ
     Using radial grid of 1073 points,  4 beta functions with: 
                l(1) =   0
                l(2) =   0
                l(3) =   1
                l(4) =   1
     Q(r) pseudized with 0 coefficients 


     atomic species   valence    mass     pseudopotential
        B              3.00    10.00000     B ( 1.00)
        N              5.00    14.00000     N ( 1.00)
        C1             4.00    12.00000     C ( 1.00)
        C2             4.00    12.00000     C ( 1.00)
        C3             4.00    12.00000     C ( 1.00)

     Starting magnetic structure 
     atomic species   magnetization
        B            0.000
        N            0.000
        C1           1.000
        C2           0.000
        C3           0.000

      2 Sym. Ops. (no inversion) found



   Cartesian axes

     site n.     atom                  positions (alat units)
         1           B   tau(   1) = (  -0.0000000   0.0824309   0.5686018  )
         2           B   tau(   2) = (  -0.0713829   0.2060622   0.5686018  )
         3           B   tau(   3) = (  -0.1427568   0.3296890   0.5686018  )
         4           B   tau(   4) = (  -0.2141395   0.4533331   0.5686018  )
         5           B   tau(   5) = (  -0.2855266   0.5769736   0.5686018  )
         6           B   tau(   6) = (  -0.3569036   0.7005986   0.5686018  )
         7           B   tau(   7) = (  -0.4282799   0.8242336   0.5686018  )
         8           B   tau(   8) = (   0.1427700   0.0824283   0.5686018  )
         9           B   tau(   9) = (   0.0713829   0.2060622   0.5686018  )
        10           B   tau(  10) = (  -0.0000000   0.3296942   0.5686018  )
        11           B   tau(  11) = (  -0.0713745   0.4533335   0.5686018  )
        12           B   tau(  12) = (  -0.1427567   0.5769711   0.5686018  )
        13           B   tau(  13) = (  -0.2141437   0.7006019   0.5686018  )
        14           B   tau(  14) = (  -0.2855207   0.8242373   0.5686018  )
        15           B   tau(  15) = (   0.2855205   0.0824268   0.5686018  )
        16           B   tau(  16) = (   0.2141440   0.2060546   0.5686018  )
        17           B   tau(  17) = (   0.1427568   0.3296890   0.5686018  )
        18           B   tau(  18) = (   0.0713735   0.4533335   0.5686018  )
        19           B   tau(  19) = (  -0.0000005   0.5769663   0.5686018  )
        20           B   tau(  20) = (  -0.0713827   0.7005944   0.5686018  )
        21           B   tau(  21) = (  -0.1427698   0.8242355   0.5686018  )
        22           B   tau(  22) = (   0.4282797   0.0824299   0.5686018  )
        23           B   tau(  23) = (   0.3569027   0.2060579   0.5686018  )
        24           B   tau(  24) = (   0.2855263   0.3296861   0.5686018  )
        25           C2  tau(  25) = (   0.2141385   0.4533331   0.5686018  )
        26           B   tau(  26) = (   0.1427557   0.5769711   0.5686018  )
        27           B   tau(  27) = (   0.0713817   0.7005944   0.5686018  )
        28           B   tau(  28) = (  -0.0000005   0.8242327   0.5686018  )
        29           B   tau(  29) = (   0.5710548   0.0824299   0.5686018  )
        30           B   tau(  30) = (   0.4996677   0.2060636   0.5686018  )
        31           B   tau(  31) = (   0.4282907   0.3296923   0.5686018  )
        32           B   tau(  32) = (   0.3569138   0.4533330   0.5686018  )
        33           B   tau(  33) = (   0.2855266   0.5769736   0.5686018  )
        34           B   tau(  34) = (   0.2141437   0.7006019   0.5686018  )
        35           B   tau(  35) = (   0.1427698   0.8242355   0.5686018  )
        36           B   tau(  36) = (   0.7138140   0.0824268   0.5686018  )
        37           B   tau(  37) = (   0.6424318   0.2060579   0.5686018  )
        38           B   tau(  38) = (   0.5710448   0.3296923   0.5686018  )
        39           B   tau(  39) = (   0.4996672   0.4533333   0.5686018  )
        40           B   tau(  40) = (   0.4282907   0.5769676   0.5686018  )
        41           B   tau(  41) = (   0.3569036   0.7005986   0.5686018  )
        42           B   tau(  42) = (   0.2855207   0.8242373   0.5686018  )
        43           B   tau(  43) = (   0.8565645   0.0824283   0.5686018  )
        44           B   tau(  44) = (   0.7851905   0.2060546   0.5686018  )
        45           B   tau(  45) = (   0.7138082   0.3296861   0.5686018  )
        46           B   tau(  46) = (   0.6424207   0.4533330   0.5686018  )
        47           B   tau(  47) = (   0.5710438   0.5769676   0.5686018  )
        48           B   tau(  48) = (   0.4996672   0.7005925   0.5686018  )
        49           B   tau(  49) = (   0.4282799   0.8242336   0.5686018  )
        50           N   tau(  50) = (   0.0713853   0.0412143   0.5686018  )
        51           N   tau(  51) = (   0.0000000   0.1648537   0.5686018  )
        52           N   tau(  52) = (  -0.0713781   0.2884819   0.5686018  )
        53           N   tau(  53) = (  -0.1427563   0.4121169   0.5686018  )
        54           N   tau(  54) = (  -0.2141417   0.5357601   0.5686018  )
        55           N   tau(  55) = (  -0.2855237   0.6593929   0.5686018  )
        56           N   tau(  56) = (  -0.3568998   0.7830222   0.5686018  )
        57           N   tau(  57) = (   0.2141455   0.0412121   0.5686018  )
        58           N   tau(  58) = (   0.1427635   0.1648494   0.5686018  )
        59           N   tau(  59) = (   0.0713781   0.2884819   0.5686018  )
        60           N   tau(  60) = (   0.0000000   0.4121169   0.5686018  )
        61           N   tau(  61) = (  -0.0713787   0.5357561   0.5686018  )
        62           N   tau(  62) = (  -0.1427636   0.6593906   0.5686018  )
        63           N   tau(  63) = (  -0.2141456   0.7830234   0.5686018  )
        64           N   tau(  64) = (   0.3568998   0.0412132   0.5686018  )
        65           N   tau(  65) = (   0.2855237   0.1648472   0.5686018  )
        66           N   tau(  66) = (   0.2141416   0.2884777   0.5686018  )
        67           C1  tau(  67) = (   0.1427563   0.4121169   0.5686018  )
        68           N   tau(  68) = (   0.0713777   0.5357561   0.5686018  )
        69           N   tau(  69) = (  -0.0000005   0.6593868   0.5686018  )
        70           N   tau(  70) = (  -0.0713854   0.7830212   0.5686018  )
        71           N   tau(  71) = (   0.4996677   0.0412149   0.5686018  )
        72           N   tau(  72) = (   0.4282857   0.1648522   0.5686018  )
        73           N   tau(  73) = (   0.3569096   0.2884793   0.5686018  )
        74           N   tau(  74) = (   0.2855275   0.4121166   0.5686018  )
        75           C3  tau(  75) = (   0.2141417   0.5357601   0.5686018  )
        76           N   tau(  76) = (   0.1427636   0.6593906   0.5686018  )
        77           N   tau(  77) = (   0.0713854   0.7830212   0.5686018  )
        78           N   tau(  78) = (   0.6424346   0.0412132   0.5686018  )
        79           N   tau(  79) = (   0.5710498   0.1648522   0.5686018  )
        80           N   tau(  80) = (   0.4996677   0.2884827   0.5686018  )
        81           N   tau(  81) = (   0.4282916   0.4121166   0.5686018  )
        82           N   tau(  82) = (   0.3569090   0.5357581   0.5686018  )
        83           N   tau(  83) = (   0.2855237   0.6593929   0.5686018  )
        84           N   tau(  84) = (   0.2141456   0.7830234   0.5686018  )
        85           N   tau(  85) = (   0.7851890   0.0412121   0.5686018  )
        86           N   tau(  86) = (   0.7138108   0.1648472   0.5686018  )
        87           N   tau(  87) = (   0.6424259   0.2884793   0.5686018  )
        88           N   tau(  88) = (   0.5710439   0.4121166   0.5686018  )
        89           N   tau(  89) = (   0.4996672   0.5357547   0.5686018  )
        90           N   tau(  90) = (   0.4282852   0.6593876   0.5686018  )
        91           N   tau(  91) = (   0.3568998   0.7830222   0.5686018  )
        92           N   tau(  92) = (   0.9279491   0.0412143   0.5686018  )
        93           N   tau(  93) = (   0.8565710   0.1648494   0.5686018  )
        94           N   tau(  94) = (   0.7851929   0.2884777   0.5686018  )
        95           N   tau(  95) = (   0.7138080   0.4121166   0.5686018  )
        96           N   tau(  96) = (   0.6424255   0.5357581   0.5686018  )
        97           N   tau(  97) = (   0.5710493   0.6593876   0.5686018  )
        98           N   tau(  98) = (   0.4996672   0.7830203   0.5686018  )

     number of k points=     1
                       cart. coord. in units 2pi/alat
        k(    1) = (   0.0000000   0.0000000   0.0000000), wk =   1.0000000

     Dense  grid:   616895 G-vectors     FFT dimensions: ( 135, 135, 160)

     Occupations read from input 

      Spin-up

        1.0000   1.0000   1.0000   1.0000   1.0000   1.0000   1.0000   1.0000
        1.0000   1.0000   1.0000   1.0000   1.0000   1.0000   1.0000   1.0000
        1.0000   1.0000   1.0000   1.0000   1.0000   1.0000   1.0000   1.0000
        1.0000   1.0000   1.0000   1.0000   1.0000   1.0000   1.0000   1.0000
        1.0000   1.0000   1.0000   1.0000   1.0000   1.0000   1.0000   1.0000
        1.0000   1.0000   1.0000   1.0000   1.0000   1.0000   1.0000   1.0000
        1.0000   1.0000   1.0000   1.0000   1.0000   1.0000   1.0000   1.0000
        1.0000   1.0000   1.0000   1.0000   1.0000   1.0000   1.0000   1.0000
        1.0000   1.0000   1.0000   1.0000   1.0000   1.0000   1.0000   1.0000
        1.0000   1.0000   1.0000   1.0000   1.0000   1.0000   1.0000   1.0000
        1.0000   1.0000   1.0000   1.0000   1.0000   1.0000   1.0000   1.0000
        1.0000   1.0000   1.0000   1.0000   1.0000   1.0000   1.0000   1.0000
        1.0000   1.0000   1.0000   1.0000   1.0000   1.0000   1.0000   1.0000
        1.0000   1.0000   1.0000   1.0000   1.0000   1.0000   1.0000   1.0000
        1.0000   1.0000   1.0000   1.0000   1.0000   1.0000   1.0000   1.0000
        1.0000   1.0000   1.0000   1.0000   1.0000   1.0000   1.0000   1.0000
        1.0000   1.0000   1.0000   1.0000   1.0000   1.0000   1.0000   1.0000
        1.0000   1.0000   1.0000   1.0000   1.0000   1.0000   1.0000   1.0000
        1.0000   1.0000   1.0000   1.0000   1.0000   1.0000   1.0000   1.0000
        1.0000   1.0000   1.0000   1.0000   1.0000   1.0000   1.0000   1.0000
        1.0000   1.0000   1.0000   1.0000   1.0000   1.0000   1.0000   1.0000
        1.0000   1.0000   1.0000   1.0000   1.0000   1.0000   1.0000   1.0000
        1.0000   1.0000   1.0000   1.0000   1.0000   1.0000   1.0000   1.0000
        1.0000   1.0000   1.0000   1.0000   1.0000   1.0000   1.0000   1.0000
        1.0000   1.0000   1.0000   0.0000   1.0000   0.0000   0.0000   0.0000
        0.0000   0.0000   0.0000   0.0000   0.0000   0.0000   0.0000   0.0000
        0.0000   0.0000   0.0000   0.0000   0.0000   0.0000   0.0000   0.0000
        0.0000   0.0000   0.0000   0.0000   0.0000   0.0000   0.0000   0.0000
        0.0000   0.0000   0.0000   0.0000   0.0000   0.0000   0.0000   0.0000
        0.0000   0.0000   0.0000   0.0000   0.0000   0.0000   0.0000   0.0000
        0.0000   0.0000   0.0000   0.0000   0.0000

      Spin-down

        1.0000   1.0000   1.0000   1.0000   1.0000   1.0000   1.0000   1.0000
        1.0000   1.0000   1.0000   1.0000   1.0000   1.0000   1.0000   1.0000
        1.0000   1.0000   1.0000   1.0000   1.0000   1.0000   1.0000   1.0000
        1.0000   1.0000   1.0000   1.0000   1.0000   1.0000   1.0000   1.0000
        1.0000   1.0000   1.0000   1.0000   1.0000   1.0000   1.0000   1.0000
        1.0000   1.0000   1.0000   1.0000   1.0000   1.0000   1.0000   1.0000
        1.0000   1.0000   1.0000   1.0000   1.0000   1.0000   1.0000   1.0000
        1.0000   1.0000   1.0000   1.0000   1.0000   1.0000   1.0000   1.0000
        1.0000   1.0000   1.0000   1.0000   1.0000   1.0000   1.0000   1.0000
        1.0000   1.0000   1.0000   1.0000   1.0000   1.0000   1.0000   1.0000
        1.0000   1.0000   1.0000   1.0000   1.0000   1.0000   1.0000   1.0000
        1.0000   1.0000   1.0000   1.0000   1.0000   1.0000   1.0000   1.0000
        1.0000   1.0000   1.0000   1.0000   1.0000   1.0000   1.0000   1.0000
        1.0000   1.0000   1.0000   1.0000   1.0000   1.0000   1.0000   1.0000
        1.0000   1.0000   1.0000   1.0000   1.0000   1.0000   1.0000   1.0000
        1.0000   1.0000   1.0000   1.0000   1.0000   1.0000   1.0000   1.0000
        1.0000   1.0000   1.0000   1.0000   1.0000   1.0000   1.0000   1.0000
        1.0000   1.0000   1.0000   1.0000   1.0000   1.0000   1.0000   1.0000
        1.0000   1.0000   1.0000   1.0000   1.0000   1.0000   1.0000   1.0000
        1.0000   1.0000   1.0000   1.0000   1.0000   1.0000   1.0000   1.0000
        1.0000   1.0000   1.0000   1.0000   1.0000   1.0000   1.0000   1.0000
        1.0000   1.0000   1.0000   1.0000   1.0000   1.0000   1.0000   1.0000
        1.0000   1.0000   1.0000   1.0000   1.0000   1.0000   1.0000   1.0000
        1.0000   1.0000   1.0000   1.0000   1.0000   1.0000   1.0000   1.0000
        1.0000   1.0000   1.0000   0.0000   0.0000   0.0000   0.0000   0.0000
        0.0000   0.0000   0.0000   0.0000   0.0000   0.0000   0.0000   0.0000
        0.0000   0.0000   0.0000   0.0000   0.0000   0.0000   0.0000   0.0000
        0.0000   0.0000   0.0000   0.0000   0.0000   0.0000   0.0000   0.0000
        0.0000   0.0000   0.0000   0.0000   0.0000   0.0000   0.0000   0.0000
        0.0000   0.0000   0.0000   0.0000   0.0000   0.0000   0.0000   0.0000
        0.0000   0.0000   0.0000   0.0000   0.0000

     Estimated max dynamical RAM per process >     122.14 MB

     Estimated total dynamical RAM >       7.63 GB
     Generating pointlists ...
     new r_m :   0.0340 (alat units)  1.1299 (a.u.) for type    1
     new r_m :   0.0340 (alat units)  1.1299 (a.u.) for type    2
     new r_m :   0.0340 (alat units)  1.1300 (a.u.) for type    3
     new r_m :   0.0340 (alat units)  1.1300 (a.u.) for type    4
     new r_m :   0.0340 (alat units)  1.1300 (a.u.) for type    5

     Check: negative core charge=   -0.000006

     Initial potential from superposition of free atoms

     starting charge  390.98597, renormalised to  391.00000

     negative rho (up, down):  5.431E-02 5.945E-02
     Starting wfcs are  392 randomized atomic wfcs
     Checking if some PAW data can be deallocated... 

     total cpu time spent up to now is       12.1 secs

     Self-consistent Calculation

     iteration #  1     ecut=    40.00 Ry     beta= 0.70
     CG style diagonalization
     ethr =  1.00E-02,  avg # of iterations =  3.1

     negative rho (up, down):  3.282E-01 1.059E-02

     total cpu time spent up to now is       49.6 secs

     total energy              =   -1933.22853211 Ry
     Harris-Foulkes estimate   =   -1946.32317561 Ry
     estimated scf accuracy    <      19.88013754 Ry

     total magnetization       =     1.00 Bohr mag/cell
     absolute magnetization    =     2.25 Bohr mag/cell

     iteration #  2     ecut=    40.00 Ry     beta= 0.70
     CG style diagonalization
     ethr =  5.08E-03,  avg # of iterations =  4.0

     negative rho (up, down):  3.643E-01 8.409E-03

     total cpu time spent up to now is       85.7 secs

     total energy              =   -1937.40901674 Ry
     Harris-Foulkes estimate   =   -1943.57127770 Ry
     estimated scf accuracy    <      12.03855246 Ry

     total magnetization       =     1.00 Bohr mag/cell
     absolute magnetization    =     2.48 Bohr mag/cell

     iteration #  3     ecut=    40.00 Ry     beta= 0.70
     CG style diagonalization
     ethr =  3.08E-03,  avg # of iterations =  3.8

     negative rho (up, down):  4.076E-01 8.251E-03

     total cpu time spent up to now is      119.6 secs

     total energy              =   -1939.63416154 Ry
     Harris-Foulkes estimate   =   -1940.39695512 Ry
     estimated scf accuracy    <       1.42600197 Ry

     total magnetization       =     1.00 Bohr mag/cell
     absolute magnetization    =     2.07 Bohr mag/cell

     iteration #  4     ecut=    40.00 Ry     beta= 0.70
     CG style diagonalization
     c_bands:  1 eigenvalues not converged
     ethr =  3.65E-04,  avg # of iterations =  4.2

     negative rho (up, down):  4.529E-01 8.039E-03

     total cpu time spent up to now is      157.9 secs

     total energy              =   -1939.76640272 Ry
     Harris-Foulkes estimate   =   -1940.49777681 Ry
     estimated scf accuracy    <       2.51810913 Ry

     total magnetization       =     1.00 Bohr mag/cell
     absolute magnetization    =     1.39 Bohr mag/cell

     iteration #  5     ecut=    40.00 Ry     beta= 0.70
     CG style diagonalization
     ethr =  3.65E-04,  avg # of iterations =  3.3

     negative rho (up, down):  4.646E-01 7.133E-03

     total cpu time spent up to now is      186.6 secs

     total energy              =   -1940.15753469 Ry
     Harris-Foulkes estimate   =   -1940.23262544 Ry
     estimated scf accuracy    <       0.21086516 Ry

     total magnetization       =     1.00 Bohr mag/cell
     absolute magnetization    =     1.53 Bohr mag/cell

     iteration #  6     ecut=    40.00 Ry     beta= 0.70
     CG style diagonalization
     c_bands:  1 eigenvalues not converged
     c_bands:  3 eigenvalues not converged
     ethr =  5.39E-05,  avg # of iterations =  3.8

     negative rho (up, down):  4.705E-01 6.642E-03

     total cpu time spent up to now is      220.2 secs

     total energy              =   -1940.17140937 Ry
     Harris-Foulkes estimate   =   -1940.18628792 Ry
     estimated scf accuracy    <       0.06189383 Ry

     total magnetization       =     1.00 Bohr mag/cell
     absolute magnetization    =     1.53 Bohr mag/cell

     iteration #  7     ecut=    40.00 Ry     beta= 0.70
     CG style diagonalization
     c_bands:  2 eigenvalues not converged
     c_bands:  1 eigenvalues not converged
     ethr =  1.58E-05,  avg # of iterations =  3.6

     negative rho (up, down):  4.803E-01 6.646E-03

     total cpu time spent up to now is      251.4 secs

     total energy              =   -1940.17185734 Ry
     Harris-Foulkes estimate   =   -1940.18509503 Ry
     estimated scf accuracy    <       0.05470187 Ry

     total magnetization       =     1.00 Bohr mag/cell
     absolute magnetization    =     1.54 Bohr mag/cell

     iteration #  8     ecut=    40.00 Ry     beta= 0.70
     CG style diagonalization
     c_bands:  1 eigenvalues not converged
     ethr =  1.40E-05,  avg # of iterations =  3.2

     negative rho (up, down):  4.847E-01 7.032E-03

     total cpu time spent up to now is      279.2 secs

     total energy              =   -1940.17852036 Ry
     Harris-Foulkes estimate   =   -1940.18012754 Ry
     estimated scf accuracy    <       0.00539509 Ry

     total magnetization       =     1.00 Bohr mag/cell
     absolute magnetization    =     1.48 Bohr mag/cell

     iteration #  9     ecut=    40.00 Ry     beta= 0.70
     CG style diagonalization
     c_bands:  5 eigenvalues not converged
     c_bands:  5 eigenvalues not converged
     ethr =  1.38E-06,  avg # of iterations =  4.6

     negative rho (up, down):  4.859E-01 7.285E-03

     total cpu time spent up to now is      322.3 secs

     total energy              =   -1940.17990999 Ry
     Harris-Foulkes estimate   =   -1940.18006462 Ry
     estimated scf accuracy    <       0.00082490 Ry

     total magnetization       =     1.00 Bohr mag/cell
     absolute magnetization    =     1.49 Bohr mag/cell

     iteration # 10     ecut=    40.00 Ry     beta= 0.70
     CG style diagonalization
     c_bands:  2 eigenvalues not converged
     c_bands:  4 eigenvalues not converged
     ethr =  2.11E-07,  avg # of iterations =  4.1

     negative rho (up, down):  4.863E-01 7.455E-03

     total cpu time spent up to now is      359.1 secs

     total energy              =   -1940.18014768 Ry
     Harris-Foulkes estimate   =   -1940.18021500 Ry
     estimated scf accuracy    <       0.00037730 Ry

     total magnetization       =     1.00 Bohr mag/cell
     absolute magnetization    =     1.47 Bohr mag/cell

     iteration # 11     ecut=    40.00 Ry     beta= 0.70
     CG style diagonalization
     c_bands:  1 eigenvalues not converged
     ethr =  9.65E-08,  avg # of iterations =  3.5

     negative rho (up, down):  4.862E-01 7.512E-03

     total cpu time spent up to now is      389.2 secs

     total energy              =   -1940.18023716 Ry
     Harris-Foulkes estimate   =   -1940.18023596 Ry
     estimated scf accuracy    <       0.00006412 Ry

     total magnetization       =     1.00 Bohr mag/cell
     absolute magnetization    =     1.46 Bohr mag/cell

     iteration # 12     ecut=    40.00 Ry     beta= 0.70
     CG style diagonalization
     ethr =  1.64E-08,  avg # of iterations =  3.8

     negative rho (up, down):  4.864E-01 7.570E-03

     total cpu time spent up to now is      422.9 secs

     total energy              =   -1940.18027623 Ry
     Harris-Foulkes estimate   =   -1940.18026874 Ry
     estimated scf accuracy    <       0.00002905 Ry

     total magnetization       =     1.00 Bohr mag/cell
     absolute magnetization    =     1.45 Bohr mag/cell

     iteration # 13     ecut=    40.00 Ry     beta= 0.70
     CG style diagonalization
     ethr =  7.43E-09,  avg # of iterations =  3.5

     negative rho (up, down):  4.863E-01 7.551E-03

     total cpu time spent up to now is      452.9 secs

     total energy              =   -1940.18029690 Ry
     Harris-Foulkes estimate   =   -1940.18028772 Ry
     estimated scf accuracy    <       0.00000757 Ry

     total magnetization       =     1.00 Bohr mag/cell
     absolute magnetization    =     1.44 Bohr mag/cell

     iteration # 14     ecut=    40.00 Ry     beta= 0.70
     CG style diagonalization
     ethr =  1.94E-09,  avg # of iterations =  3.5

     negative rho (up, down):  4.863E-01 7.570E-03

     total cpu time spent up to now is      483.2 secs

     total energy              =   -1940.18031201 Ry
     Harris-Foulkes estimate   =   -1940.18030171 Ry
     estimated scf accuracy    <       0.00000479 Ry

     total magnetization       =     1.00 Bohr mag/cell
     absolute magnetization    =     1.43 Bohr mag/cell

     iteration # 15     ecut=    40.00 Ry     beta= 0.70
     CG style diagonalization
     ethr =  1.23E-09,  avg # of iterations =  3.6

     negative rho (up, down):  4.862E-01 7.575E-03

     total cpu time spent up to now is      515.0 secs

     total energy              =   -1940.18032741 Ry
     Harris-Foulkes estimate   =   -1940.18032049 Ry
     estimated scf accuracy    <       0.00000320 Ry

     total magnetization       =     1.00 Bohr mag/cell
     absolute magnetization    =     1.42 Bohr mag/cell

     iteration # 16     ecut=    40.00 Ry     beta= 0.70
     CG style diagonalization
     ethr =  8.18E-10,  avg # of iterations =  3.6

     negative rho (up, down):  4.862E-01 7.580E-03

     total cpu time spent up to now is      546.5 secs

     total energy              =   -1940.18033889 Ry
     Harris-Foulkes estimate   =   -1940.18033397 Ry
     estimated scf accuracy    <       0.00000308 Ry

     total magnetization       =     1.00 Bohr mag/cell
     absolute magnetization    =     1.41 Bohr mag/cell

     iteration # 17     ecut=    40.00 Ry     beta= 0.70
     CG style diagonalization
     ethr =  7.88E-10,  avg # of iterations =  3.4

     negative rho (up, down):  4.862E-01 7.579E-03

     total cpu time spent up to now is      576.2 secs

     total energy              =   -1940.18034619 Ry
     Harris-Foulkes estimate   =   -1940.18034309 Ry
     estimated scf accuracy    <       0.00000428 Ry

     total magnetization       =     1.00 Bohr mag/cell
     absolute magnetization    =     1.40 Bohr mag/cell

     iteration # 18     ecut=    40.00 Ry     beta= 0.70
     CG style diagonalization
     ethr =  7.88E-10,  avg # of iterations =  3.6

     negative rho (up, down):  4.862E-01 7.561E-03

     total cpu time spent up to now is      607.7 secs

     total energy              =   -1940.18034676 Ry
     Harris-Foulkes estimate   =   -1940.18035280 Ry
     estimated scf accuracy    <       0.00000183 Ry

     total magnetization       =     1.00 Bohr mag/cell
     absolute magnetization    =     1.38 Bohr mag/cell

     iteration # 19     ecut=    40.00 Ry     beta= 0.70
     CG style diagonalization
     ethr =  4.68E-10,  avg # of iterations =  4.1

     negative rho (up, down):  4.862E-01 7.543E-03
 
     Magnetic moment per site:
     atom:    1    charge:    0.8803    magn:    0.0000    constr:    0.0000
     atom:    2    charge:    0.8816    magn:    0.0013    constr:    0.0000
     atom:    3    charge:    0.8803    magn:    0.0006    constr:    0.0000
     atom:    4    charge:    0.8797    magn:    0.0000    constr:    0.0000
     atom:    5    charge:    0.8804    magn:    0.0005    constr:    0.0000
     atom:    6    charge:    0.8813    magn:   -0.0000    constr:    0.0000
     atom:    7    charge:    0.8805    magn:    0.0008    constr:    0.0000
     atom:    8    charge:    0.8823    magn:    0.0008    constr:    0.0000
     atom:    9    charge:    0.8826    magn:    0.0010    constr:    0.0000
     atom:   10    charge:    0.8831    magn:    0.0058    constr:    0.0000
     atom:   11    charge:    0.8820    magn:    0.0001    constr:    0.0000
     atom:   12    charge:    0.8813    magn:    0.0007    constr:    0.0000
     atom:   13    charge:    0.8820    magn:   -0.0001    constr:    0.0000
     atom:   14    charge:    0.8813    magn:   -0.0001    constr:    0.0000
     atom:   15    charge:    0.8825    magn:    0.0005    constr:    0.0000
     atom:   16    charge:    0.8846    magn:    0.0040    constr:    0.0000
     atom:   17    charge:    0.9215    magn:    0.0166    constr:    0.0000
     atom:   18    charge:    0.9180    magn:    0.0111    constr:    0.0000
     atom:   19    charge:    0.8866    magn:    0.0050    constr:    0.0000
     atom:   20    charge:    0.8813    magn:    0.0007    constr:    0.0000
     atom:   21    charge:    0.8805    magn:    0.0006    constr:    0.0000
     atom:   22    charge:    0.8805    magn:   -0.0000    constr:    0.0000
     atom:   23    charge:    0.8816    magn:    0.0004    constr:    0.0000
     atom:   24    charge:    0.8835    magn:    0.0086    constr:    0.0000
     atom:   25    charge:    1.7318    magn:    0.2048    constr:    0.0000
     atom:   26    charge:    0.9183    magn:    0.0143    constr:    0.0000
     atom:   27    charge:    0.8820    magn:    0.0010    constr:    0.0000
     atom:   28    charge:    0.8797    magn:    0.0000    constr:    0.0000
     atom:   29    charge:    0.8807    magn:    0.0006    constr:    0.0000
     atom:   30    charge:    0.8816    magn:    0.0005    constr:    0.0000
     atom:   31    charge:    0.8823    magn:    0.0023    constr:    0.0000
     atom:   32    charge:    0.8833    magn:    0.0063    constr:    0.0000
     atom:   33    charge:    0.9215    magn:    0.0166    constr:    0.0000
     atom:   34    charge:    0.8832    magn:    0.0053    constr:    0.0000
     atom:   35    charge:    0.8803    magn:    0.0008    constr:    0.0000
     atom:   36    charge:    0.8822    magn:   -0.0001    constr:    0.0000
     atom:   37    charge:    0.8819    magn:    0.0000    constr:    0.0000
     atom:   38    charge:    0.8816    magn:    0.0002    constr:    0.0000
     atom:   39    charge:    0.8816    magn:    0.0001    constr:    0.0000
     atom:   40    charge:    0.8846    magn:    0.0044    constr:    0.0000
     atom:   41    charge:    0.8826    magn:    0.0014    constr:    0.0000
     atom:   42    charge:    0.8816    magn:    0.0011    constr:    0.0000
     atom:   43    charge:    0.8822    magn:    0.0009    constr:    0.0000
     atom:   44    charge:    0.8822    magn:    0.0000    constr:    0.0000
     atom:   45    charge:    0.8806    magn:    0.0005    constr:    0.0000
     atom:   46    charge:    0.8805    magn:    0.0001    constr:    0.0000
     atom:   47    charge:    0.8825    magn:    0.0005    constr:    0.0000
     atom:   48    charge:    0.8824    magn:    0.0008    constr:    0.0000
     atom:   49    charge:    0.8803    magn:    0.0001    constr:    0.0000
     atom:   50    charge:    2.8681    magn:   -0.0002    constr:    0.0000
     atom:   51    charge:    2.8714    magn:   -0.0006    constr:    0.0000
     atom:   52    charge:    2.8715    magn:   -0.0000    constr:    0.0000
     atom:   53    charge:    2.8685    magn:   -0.0006    constr:    0.0000
     atom:   54    charge:    2.8683    magn:   -0.0001    constr:    0.0000
     atom:   55    charge:    2.8730    magn:    0.0003    constr:    0.0000
     atom:   56    charge:    2.8715    magn:    0.0003    constr:    0.0000
     atom:   57    charge:    2.8692    magn:    0.0017    constr:    0.0000
     atom:   58    charge:    2.8675    magn:    0.0025    constr:    0.0000
     atom:   59    charge:    2.8695    magn:    0.0025    constr:    0.0000
     atom:   60    charge:    2.8654    magn:   -0.0040    constr:    0.0000
     atom:   61    charge:    2.8684    magn:    0.0033    constr:    0.0000
     atom:   62    charge:    2.8716    magn:    0.0017    constr:    0.0000
     atom:   63    charge:    2.8730    magn:    0.0004    constr:    0.0000
     atom:   64    charge:    2.8674    magn:   -0.0002    constr:    0.0000
     atom:   65    charge:    2.8701    magn:    0.0007    constr:    0.0000
     atom:   66    charge:    2.8616    magn:    0.0046    constr:    0.0000
     atom:   67    charge:    1.7971    magn:    0.0355    constr:    0.0000
     atom:   68    charge:    2.8692    magn:    0.0087    constr:    0.0000
     atom:   69    charge:    2.8685    magn:   -0.0023    constr:    0.0000
     atom:   70    charge:    2.8683    magn:   -0.0005    constr:    0.0000
     atom:   71    charge:    2.8684    magn:   -0.0000    constr:    0.0000
     atom:   72    charge:    2.8693    magn:   -0.0001    constr:    0.0000
     atom:   73    charge:    2.8677    magn:    0.0013    constr:    0.0000
     atom:   74    charge:    2.8363    magn:    0.0001    constr:    0.0000
     atom:   75    charge:    1.7972    magn:   -0.0365    constr:    0.0000
     atom:   76    charge:    2.8654    magn:   -0.0052    constr:    0.0000
     atom:   77    charge:    2.8685    magn:   -0.0000    constr:    0.0000
     atom:   78    charge:    2.8674    magn:   -0.0005    constr:    0.0000
     atom:   79    charge:    2.8694    magn:   -0.0002    constr:    0.0000
     atom:   80    charge:    2.8749    magn:   -0.0002    constr:    0.0000
     atom:   81    charge:    2.8676    magn:   -0.0052    constr:    0.0000
     atom:   82    charge:    2.8617    magn:    0.0074    constr:    0.0000
     atom:   83    charge:    2.8693    magn:   -0.0088    constr:    0.0000
     atom:   84    charge:    2.8714    magn:   -0.0043    constr:    0.0000
     atom:   85    charge:    2.8688    magn:   -0.0007    constr:    0.0000
     atom:   86    charge:    2.8701    magn:    0.0001    constr:    0.0000
     atom:   87    charge:    2.8694    magn:   -0.0001    constr:    0.0000
     atom:   88    charge:    2.8693    magn:   -0.0005    constr:    0.0000
     atom:   89    charge:    2.8701    magn:    0.0018    constr:    0.0000
     atom:   90    charge:    2.8675    magn:   -0.0016    constr:    0.0000
     atom:   91    charge:    2.8714    magn:   -0.0005    constr:    0.0000
     atom:   92    charge:    2.8683    magn:   -0.0002    constr:    0.0000
     atom:   93    charge:    2.8688    magn:   -0.0003    constr:    0.0000
     atom:   94    charge:    2.8674    magn:   -0.0001    constr:    0.0000
     atom:   95    charge:    2.8684    magn:   -0.0001    constr:    0.0000
     atom:   96    charge:    2.8674    magn:   -0.0001    constr:    0.0000
     atom:   97    charge:    2.8692    magn:    0.0015    constr:    0.0000
     atom:   98    charge:    2.8681    magn:   -0.0006    constr:    0.0000

     total cpu time spent up to now is      644.3 secs

     End of self-consistent calculation

 ------ SPIN UP ------------


          k = 0.0000 0.0000 0.0000 ( 77079 PWs)   bands (ev):

   -21.7283 -21.4066 -21.3673 -21.3659 -21.3501 -21.3322 -21.1986 -20.7236
   -20.6436 -20.6206 -20.5951 -20.5460 -20.5097 -20.3510 -20.2971 -20.2872
   -20.2333 -20.1513 -20.0622 -19.5015 -19.3809 -19.3689 -19.3681 -19.3567
   -19.3544 -19.3534 -19.3499 -19.3331 -19.2783 -19.1599 -19.1464 -18.9990
   -18.9780 -18.9568 -18.9153 -18.7774 -18.7419 -18.5166 -18.5145 -18.5094
   -18.4909 -18.4177 -18.4149 -18.3727 -18.3498 -18.3322 -18.3157 -16.9153
   -15.3366 -13.1386 -12.7481 -12.7429 -12.7299 -12.7087 -12.6980 -12.6363
   -12.5453 -12.5197 -12.5054 -12.4765 -12.4163 -12.1178 -12.0550 -12.0386
   -12.0184 -11.9917 -11.9649 -11.5139 -11.3707 -11.3661 -11.3650 -11.3585
   -11.3471 -11.3451 -11.3410 -11.2948 -11.2834 -11.1197 -11.0696 -10.8167
   -10.6978 -10.6945 -10.6771 -10.6596 -10.5567 -10.0224 -10.0045  -9.9620
    -9.9150  -9.8604  -9.8146  -9.3558  -9.3081  -9.2795  -9.2715  -9.2671
    -9.2394  -9.2085  -8.9618  -8.8687  -8.8673  -8.8537  -8.8445  -8.8343
    -8.8333  -8.8298  -8.8251  -8.8210  -8.8199  -8.8144  -8.8070  -8.8008
    -8.7948  -8.7882  -8.7871  -8.7805  -8.7303  -8.7099  -8.6864  -8.6766
    -8.5413  -8.5314  -8.1566  -8.1494  -8.1459  -8.1198  -8.0537  -7.9014
    -7.8400  -7.8185  -7.7933  -7.7711  -7.7445  -7.7245  -7.5079  -7.4663
    -7.4604  -7.4412  -7.4277  -7.4271  -7.3772  -7.3658  -7.3653  -7.3399
    -7.3334  -7.3316  -7.2868  -7.2562  -7.2528  -7.2359  -7.2079  -7.0599
    -6.9864  -6.9711  -6.9237  -6.8297  -6.7017  -6.6763  -6.1540  -6.1522
    -6.1482  -6.1331  -6.0801  -6.0460  -6.0391  -6.0346  -6.0287  -6.0250
    -6.0216  -6.0191  -6.0109  -5.9603  -5.8864  -5.8414  -5.8406  -5.8046
    -5.4753  -5.4485  -5.4309  -5.4080  -5.3498  -5.2678  -5.2342  -5.2032
    -4.7649  -4.7508  -4.7396  -4.7337  -4.6634  -4.6246  -4.5304  -4.4993
    -4.4876  -4.4800  -4.2434  -3.7297  -0.1871   0.1858   0.7075   0.7340
     0.7382   0.7454   0.7640   0.7707   0.7957   0.8180   0.8212   0.8238
     0.8248   0.8396   0.8503   0.8963   0.8975   0.8985   0.9329   0.9429
     0.9516   1.1582   1.2442   1.2494   1.2658   1.2851   1.3294   1.3309
     1.3332   1.3380   1.3505   1.3556   1.3819   1.4409   1.4416   1.4421
     1.4495   1.4531   1.4738   1.8841   2.1022   2.1121   2.1156   2.1207
     2.1272   2.1310   2.1479   2.2095   2.3493

 ------ SPIN DOWN ----------


          k = 0.0000 0.0000 0.0000 ( 77079 PWs)   bands (ev):

   -21.7233 -21.3911 -21.3661 -21.3649 -21.3445 -21.3280 -21.1747 -20.6961
   -20.6411 -20.6194 -20.5915 -20.5430 -20.5010 -20.3380 -20.2946 -20.2846
   -20.2294 -20.1465 -20.0404 -19.4812 -19.3801 -19.3680 -19.3674 -19.3550
   -19.3531 -19.3521 -19.3476 -19.3308 -19.2728 -19.1573 -19.1393 -18.9942
   -18.9777 -18.9548 -18.9109 -18.7753 -18.7320 -18.5159 -18.5103 -18.5086
   -18.4895 -18.4159 -18.4145 -18.3703 -18.3501 -18.3309 -18.3135 -16.7825
   -15.2741 -13.0255 -12.7450 -12.7387 -12.7248 -12.7047 -12.6946 -12.6280
   -12.5415 -12.5159 -12.5022 -12.4646 -12.4028 -12.1039 -12.0512 -12.0362
   -12.0133 -11.9844 -11.9557 -11.4831 -11.3675 -11.3632 -11.3571 -11.3561
   -11.3424 -11.3397 -11.3355 -11.2852 -11.2740 -11.1116 -11.0513 -10.7962
   -10.6951 -10.6906 -10.6683 -10.6548 -10.5416 -10.0145  -9.9960  -9.9564
    -9.9063  -9.8531  -9.8048  -9.3463  -9.2894  -9.2687  -9.2685  -9.2640
    -9.2340  -9.2060  -8.9490  -8.8667  -8.8628  -8.8505  -8.8384  -8.8322
    -8.8313  -8.8281  -8.8164  -8.8105  -8.8086  -8.8060  -8.8008  -8.7963
    -8.7899  -8.7847  -8.7684  -8.7604  -8.7243  -8.6772  -8.6611  -8.6197
    -8.5308  -8.5237  -8.1560  -8.1468  -8.1447  -8.1066  -8.0436  -7.8952
    -7.8082  -7.7891  -7.7858  -7.7538  -7.7249  -7.6783  -7.5012  -7.4586
    -7.4574  -7.4388  -7.4266  -7.4256  -7.3696  -7.3626  -7.3327  -7.3293
    -7.3234  -7.3104  -7.2663  -7.2544  -7.2245  -7.1962  -7.1703  -7.0483
    -6.9839  -6.9688  -6.9127  -6.8161  -6.6957  -6.6687  -6.1531  -6.1478
    -6.1317  -6.0711  -6.0481  -6.0421  -6.0324  -6.0294  -6.0182  -6.0165
    -6.0143  -6.0119  -6.0016  -5.9378  -5.8355  -5.8337  -5.8145  -5.7949
    -5.4439  -5.4362  -5.4198  -5.3950  -5.3073  -5.2492  -5.2133  -5.1934
    -4.7470  -4.7370  -4.7340  -4.7290  -4.6487  -4.6194  -4.5126  -4.4943
    -4.4835  -4.4743  -4.1470  -3.6272   0.1910   0.4640   0.7103   0.7535
     0.7537   0.7632   0.7919   0.7939   0.7941   0.8214   0.8254   0.8257
     0.8457   0.8458   0.8549   0.9135   0.9192   0.9232   0.9468   0.9573
     1.0538   1.2019   1.2600   1.2765   1.2844   1.3299   1.3324   1.3328
     1.3441   1.3455   1.3534   1.3841   1.3956   1.4393   1.4399   1.4406
     1.4488   1.4521   1.4785   1.8866   2.1152   2.1162   2.1251   2.1383
     2.1395   2.1582   2.2094   2.2120   2.3437

     highest occupied, lowest unoccupied level (ev):    -4.1470   -3.7297

!    total energy              =   -1940.18036953 Ry
     Harris-Foulkes estimate   =   -1940.18036795 Ry
     estimated scf accuracy    <       0.00000088 Ry

     total all-electron energy =     -7770.004846 Ry

     The total energy is the sum of the following terms:

     one-electron contribution =  -10680.68007058 Ry
     hartree contribution      =    5426.35938693 Ry
     xc contribution           =    -431.02484595 Ry
     ewald contribution        =    4388.62168141 Ry
     DFT-D3 Dispersion         =      -0.27079554 Ry
     one-center paw contrib.   =    -643.18572579 Ry

     total magnetization       =     1.00 Bohr mag/cell
     absolute magnetization    =     1.35 Bohr mag/cell

     convergence has been achieved in  19 iterations

     negative rho (up, down):  4.862E-01 7.543E-03

     Forces acting on atoms (cartesian axes, Ry/au):

     atom    1 type  1   force =    -0.00083913   -0.00214061    0.00000000
     atom    2 type  1   force =     0.00226404   -0.00550742    0.00000000
     atom    3 type  1   force =    -0.00637598    0.00460898    0.00000000
     atom    4 type  1   force =    -0.00239507   -0.00004545    0.00000000
     atom    5 type  1   force =     0.00092258   -0.00235275    0.00000000
     atom    6 type  1   force =     0.00112557    0.00125182    0.00000000
     atom    7 type  1   force =    -0.00174058    0.00090251    0.00000000
     atom    8 type  1   force =    -0.00293665   -0.00463110    0.00000000
     atom    9 type  1   force =    -0.00598515    0.00451290    0.00000000
     atom   10 type  1   force =    -0.00063545   -0.01174041    0.00000000
     atom   11 type  1   force =    -0.00913190    0.00520916    0.00000000
     atom   12 type  1   force =    -0.00215796   -0.00235088    0.00000000
     atom   13 type  1   force =     0.00080095   -0.00048707    0.00000000
     atom   14 type  1   force =    -0.00053529   -0.00178438    0.00000000
     atom   15 type  1   force =     0.00244934    0.00012069    0.00000000
     atom   16 type  1   force =     0.00333104    0.00201637    0.00000000
     atom   17 type  1   force =    -0.00048874   -0.09504019    0.00000000
     atom   18 type  1   force =    -0.09194625    0.06335230    0.00000000
     atom   19 type  1   force =     0.01983816   -0.01146443    0.00000000
     atom   20 type  1   force =     0.00112066    0.00302461    0.00000000
     atom   21 type  1   force =     0.00259353    0.00031331    0.00000000
     atom   22 type  1   force =     0.00233398   -0.00307475    0.00000000
     atom   23 type  1   force =     0.00172625    0.00010755    0.00000000
     atom   24 type  1   force =     0.00340839    0.02126355    0.00000000
     atom   25 type  4   force =     0.02805286   -0.01850636    0.00000000
     atom   26 type  1   force =    -0.09790256    0.04787032    0.00000000
     atom   27 type  1   force =    -0.00830169    0.00520086    0.00000000
     atom   28 type  1   force =    -0.00096739    0.00202286    0.00000000
     atom   29 type  1   force =    -0.00423651   -0.00158781    0.00000000
     atom   30 type  1   force =     0.00027810    0.00032783    0.00000000
     atom   31 type  1   force =    -0.00011776   -0.00026606    0.00000000
     atom   32 type  1   force =    -0.01635794   -0.01241923    0.00000000
     atom   33 type  1   force =     0.08062399    0.04737866    0.00000000
     atom   34 type  1   force =     0.00966872    0.00620660    0.00000000
     atom   35 type  1   force =    -0.00709472    0.00309971    0.00000000
     atom   36 type  1   force =    -0.00137223   -0.00085259    0.00000000
     atom   37 type  1   force =    -0.00268634    0.00150789    0.00000000
     atom   38 type  1   force =    -0.00013240   -0.00039000    0.00000000
     atom   39 type  1   force =     0.00104370   -0.00094788    0.00000000
     atom   40 type  1   force =    -0.00092496   -0.00436460    0.00000000
     atom   41 type  1   force =    -0.00719426    0.00270865    0.00000000
     atom   42 type  1   force =     0.00586654    0.00064411    0.00000000
     atom   43 type  1   force =     0.00393454   -0.00238232    0.00000000
     atom   44 type  1   force =    -0.00003854    0.00152888    0.00000000
     atom   45 type  1   force =    -0.00082656    0.00450911    0.00000000
     atom   46 type  1   force =     0.00375100   -0.00036830    0.00000000
     atom   47 type  1   force =     0.00093585   -0.00222709    0.00000000
     atom   48 type  1   force =     0.00232884    0.00472123    0.00000000
     atom   49 type  1   force =     0.00125651    0.00160316    0.00000000
     atom   50 type  2   force =     0.00024387    0.00024114    0.00000000
     atom   51 type  2   force =    -0.00123204   -0.00147507    0.00000000
     atom   52 type  2   force =     0.00600299    0.00356075    0.00000000
     atom   53 type  2   force =     0.00001968   -0.00072839    0.00000000
     atom   54 type  2   force =    -0.00015809   -0.00108474    0.00000000
     atom   55 type  2   force =    -0.00058568    0.00051047    0.00000000
     atom   56 type  2   force =    -0.00031410    0.00026383    0.00000000
     atom   57 type  2   force =    -0.00119069    0.00017079    0.00000000
     atom   58 type  2   force =     0.00024163    0.00062118    0.00000000
     atom   59 type  2   force =    -0.00348798   -0.01647153    0.00000000
     atom   60 type  2   force =     0.00075412    0.01070716    0.00000000
     atom   61 type  2   force =    -0.00791979   -0.00432904    0.00000000
     atom   62 type  2   force =    -0.00183301    0.00096729    0.00000000
     atom   63 type  2   force =    -0.00079298    0.00031069    0.00000000
     atom   64 type  2   force =     0.00061135   -0.00035340    0.00000000
     atom   65 type  2   force =     0.00027550   -0.00375196    0.00000000
     atom   66 type  2   force =    -0.00327843   -0.02017211    0.00000000
     atom   67 type  3   force =     0.12804329    0.04590977    0.00000000
     atom   68 type  2   force =    -0.05101193    0.02804312    0.00000000
     atom   69 type  2   force =    -0.00054788    0.00887810    0.00000000
     atom   70 type  2   force =     0.00070188    0.00071274    0.00000000
     atom   71 type  2   force =     0.00054791   -0.00009358    0.00000000
     atom   72 type  2   force =    -0.00070793    0.00067333    0.00000000
     atom   73 type  2   force =     0.00098658    0.00452182    0.00000000
     atom   74 type  2   force =    -0.02473698    0.01356002    0.00000000
     atom   75 type  5   force =     0.02376052   -0.13120736    0.00000000
     atom   76 type  2   force =    -0.00930337   -0.00533577    0.00000000
     atom   77 type  2   force =     0.00047354    0.00047242    0.00000000
     atom   78 type  2   force =     0.00027114   -0.00205682    0.00000000
     atom   79 type  2   force =     0.00078413   -0.00107467    0.00000000
     atom   80 type  2   force =     0.00142463   -0.00083147    0.00000000
     atom   81 type  2   force =    -0.00389028   -0.00310278    0.00000000
     atom   82 type  2   force =     0.01713777    0.01264443    0.00000000
     atom   83 type  2   force =     0.01270328    0.01168020    0.00000000
     atom   84 type  2   force =    -0.00010586   -0.00672107    0.00000000
     atom   85 type  2   force =     0.00023938   -0.00111649    0.00000000
     atom   86 type  2   force =     0.00054345   -0.00021312    0.00000000
     atom   87 type  2   force =     0.00135255   -0.00010118    0.00000000
     atom   88 type  2   force =    -0.00091033    0.00021624    0.00000000
     atom   89 type  2   force =     0.00378435    0.00133555    0.00000000
     atom   90 type  2   force =    -0.00013218   -0.00025613    0.00000000
     atom   91 type  2   force =     0.00081016    0.00206485    0.00000000
     atom   92 type  2   force =     0.00012180    0.00006614    0.00000000
     atom   93 type  2   force =     0.00120238    0.00051086    0.00000000
     atom   94 type  2   force =     0.00206137    0.00084011    0.00000000
     atom   95 type  2   force =     0.00047777   -0.00046383    0.00000000
     atom   96 type  2   force =     0.00072151   -0.00044265    0.00000000
     atom   97 type  2   force =    -0.00053868    0.00100768    0.00000000
     atom   98 type  2   force =     0.00004652   -0.00018950    0.00000000

     Total force =     0.297072     Total SCF correction =     0.001486


     Computing stress (Cartesian axis) and pressure


     negative rho (up, down):  4.862E-01 7.543E-03
          total   stress  (Ry/bohr**3)                   (kbar)     P=    1.83
   0.00002329  -0.00000526   0.00000000          3.43     -0.77      0.00
  -0.00000526   0.00001747   0.00000000         -0.77      2.57      0.00
   0.00000000   0.00000000  -0.00000337          0.00      0.00     -0.50


     BFGS Geometry Optimization

     number of scf cycles    =   1
     number of bfgs steps    =   0

     enthalpy new            =   -1940.1803695264 Ry

     new trust radius        =       0.1360249635 bohr
     new conv_thr            =       0.0000010000 Ry

     new unit-cell volume =  36141.38291 a.u.^3 (  5355.60033 Ang^3 )
     density =      0.36401 g/cm^3

CELL_PARAMETERS (alat= 33.23461096)
   0.999916279  -0.000131331   0.000000000
  -0.500071875   0.865892626   0.000000000
   0.000000000   0.000000000   1.137203616

ATOMIC_POSITIONS (crystal)
B        0.047560746   0.095172023   0.500000000
B        0.047591305   0.237907067   0.500000000
B        0.047509120   0.381105863   0.500000000
B        0.047551343   0.523811044   0.500000000
B        0.047607854   0.666593556   0.500000000
B        0.047674526   0.809563853   0.500000000
B        0.047586504   0.952408155   0.500000000
B        0.190317849   0.095082378   0.500000000
B        0.190377911   0.238255444   0.500000000
B        0.190252585   0.380543435   0.500000000
B        0.190300108   0.523994108   0.500000000
B        0.190378667   0.666590775   0.500000000
B        0.190491456   0.809507259   0.500000000
B        0.190432533   0.952319087   0.500000000
B        0.333407332   0.095245889   0.500000000
B        0.333466832   0.238159895   0.500000000
B        0.331657797   0.377641355   0.500000000
B        0.331660355   0.526015574   0.500000000
B        0.333731018   0.666268415   0.500000000
B        0.333413813   0.809620649   0.500000000
B        0.333408182   0.952389918   0.500000000
B        0.476204355   0.095138374   0.500000000
B        0.476241040   0.238097336   0.500000000
B        0.476659790   0.381681528   0.500000000
C2       0.476710318   0.523169212   0.500000000
B        0.474071391   0.668336818   0.500000000
B        0.476027451   0.809696311   0.500000000
B        0.476193413   0.952446083   0.500000000
B        0.618902584   0.095190071   0.500000000
B        0.619064682   0.238111618   0.500000000
B        0.619042439   0.380940140   0.500000000
B        0.618349329   0.523380689   0.500000000
B        0.622305506   0.668322570   0.500000000
B        0.619447395   0.809739978   0.500000000
B        0.618894646   0.952486793   0.500000000
B        0.761854070   0.095212051   0.500000000
B        0.761851732   0.238146022   0.500000000
B        0.761889014   0.380935831   0.500000000
B        0.761921350   0.523779851   0.500000000
B        0.761806486   0.666516770   0.500000000
B        0.761731929   0.809614503   0.500000000
B        0.762089289   0.952403519   0.500000000
B        0.904833665   0.095160562   0.500000000
B        0.904783724   0.238142947   0.500000000
B        0.904808223   0.381099026   0.500000000
B        0.904861263   0.523799664   0.500000000
B        0.904747770   0.666591085   0.500000000
B        0.904908803   0.809677369   0.500000000
B        0.904819255   0.952432514   0.500000000
N        0.095255384   0.047630308   0.500000000
N        0.095178954   0.190432100   0.500000000
N        0.095482991   0.333455784   0.500000000
N        0.095230841   0.476163162   0.500000000
N        0.095219294   0.619016713   0.500000000
N        0.095231587   0.761926109   0.500000000
N        0.095236821   0.904767481   0.500000000
N        0.238064889   0.047625219   0.500000000
N        0.238115845   0.190500087   0.500000000
N        0.237700286   0.332759321   0.500000000
N        0.238303066   0.476560719   0.500000000
N        0.237784969   0.618899332   0.500000000
N        0.238055856   0.761939398   0.500000000
N        0.238073164   0.904770454   0.500000000
N        0.380960083   0.047608305   0.500000000
N        0.380894828   0.190345432   0.500000000
N        0.380498446   0.332625902   0.500000000
C1       0.385598923   0.477784634   0.500000000
N        0.379901722   0.620024817   0.500000000
N        0.381087996   0.762209985   0.500000000
N        0.380979097   0.904781869   0.500000000
N        0.523826644   0.047619296   0.500000000
N        0.523802193   0.190505144   0.500000000
N        0.523920113   0.333486279   0.500000000
N        0.523302685   0.476659668   0.500000000
C3       0.522246077   0.614492733   0.500000000
N        0.523438666   0.761720259   0.500000000
N        0.523833984   0.904773514   0.500000000
N        0.666645182   0.047549082   0.500000000
N        0.666675859   0.190444371   0.500000000
N        0.666695440   0.333304092   0.500000000
N        0.666499861   0.476080322   0.500000000
N        0.667408582   0.619491791   0.500000000
N        0.667253541   0.762314447   0.500000000
N        0.666547990   0.904525980   0.500000000
N        0.809509309   0.047580464   0.500000000
N        0.809536781   0.190468468   0.500000000
N        0.809557231   0.333325551   0.500000000
N        0.809494616   0.476195715   0.500000000
N        0.809661283   0.619094678   0.500000000
N        0.809513078   0.761893324   0.500000000
N        0.809576904   0.904830097   0.500000000
N        0.952382893   0.047624223   0.500000000
N        0.952425802   0.190496251   0.500000000
N        0.952456078   0.333356435   0.500000000
N        0.952383773   0.476172100   0.500000000
N        0.952393437   0.619036791   0.500000000
N        0.952382017   0.761937263   0.500000000
N        0.952376182   0.904749562   0.500000000



     Writing output data file C2Cn.save/
     NEW-OLD atomic charge density approx. for the potential
     NEW k-points:
   0.0000000   0.0000000   0.0000000   1.0000000
   0.0000000   0.0000000   0.0000000   1.0000000

     Check: negative core charge=   -0.000006

     negative rho (up, down):  4.861E-01 2.592E-03
     extrapolated charge  391.39804, renormalised to  391.00000

     total cpu time spent up to now is      665.3 secs

     Self-consistent Calculation

     iteration #  1     ecut=    40.00 Ry     beta= 0.70
     CG style diagonalization
     ethr =  1.00E-06,  avg # of iterations = 22.6

     negative rho (up, down):  2.791E-01 2.166E-01

     total cpu time spent up to now is      907.3 secs

     total energy              =   -1940.07408664 Ry
     Harris-Foulkes estimate   =   -1929.69792396 Ry
     estimated scf accuracy    <       0.17976793 Ry

     total magnetization       =     1.00 Bohr mag/cell
     absolute magnetization    =     1.42 Bohr mag/cell

     iteration #  2     ecut=    40.00 Ry     beta= 0.70
     CG style diagonalization
     c_bands:  1 eigenvalues not converged
     c_bands:  1 eigenvalues not converged
     ethr =  4.60E-05,  avg # of iterations =  4.7

     negative rho (up, down):  3.025E-01 1.935E-01

     total cpu time spent up to now is      952.0 secs

     total energy              =   -1939.95860789 Ry
     Harris-Foulkes estimate   =   -1940.56506266 Ry
     estimated scf accuracy    <       2.58017138 Ry

     total magnetization       =     1.00 Bohr mag/cell
     absolute magnetization    =     1.33 Bohr mag/cell

     iteration #  3     ecut=    40.00 Ry     beta= 0.70
     CG style diagonalization
     ethr =  4.60E-05,  avg # of iterations =  4.3

     negative rho (up, down):  3.492E-01 1.457E-01

     total cpu time spent up to now is      991.5 secs

     total energy              =   -1940.20346601 Ry
     Harris-Foulkes estimate   =   -1940.23103269 Ry
     estimated scf accuracy    <       0.07080968 Ry

     total magnetization       =     1.00 Bohr mag/cell
     absolute magnetization    =     1.16 Bohr mag/cell

     iteration #  4     ecut=    40.00 Ry     beta= 0.70
     CG style diagonalization
     c_bands:  1 eigenvalues not converged
     ethr =  1.81E-05,  avg # of iterations =  3.6

     negative rho (up, down):  3.966E-01 9.528E-02

     total cpu time spent up to now is     1023.7 secs

     total energy              =   -1940.20903225 Ry
     Harris-Foulkes estimate   =   -1940.21141994 Ry
     estimated scf accuracy    <       0.01162861 Ry

     total magnetization       =     1.00 Bohr mag/cell
     absolute magnetization    =     1.17 Bohr mag/cell

     iteration #  5     ecut=    40.00 Ry     beta= 0.70
     CG style diagonalization
     c_bands:  1 eigenvalues not converged
     ethr =  2.97E-06,  avg # of iterations =  3.8

     negative rho (up, down):  4.302E-01 5.886E-02

     total cpu time spent up to now is     1057.4 secs

     total energy              =   -1940.20875643 Ry
     Harris-Foulkes estimate   =   -1940.21019677 Ry
     estimated scf accuracy    <       0.00664151 Ry

     total magnetization       =     1.00 Bohr mag/cell
     absolute magnetization    =     1.18 Bohr mag/cell

     iteration #  6     ecut=    40.00 Ry     beta= 0.70
     CG style diagonalization
     c_bands:  1 eigenvalues not converged
     ethr =  1.70E-06,  avg # of iterations =  3.4

     negative rho (up, down):  4.509E-01 3.686E-02

     total cpu time spent up to now is     1087.2 secs

     total energy              =   -1940.20871895 Ry
     Harris-Foulkes estimate   =   -1940.20938893 Ry
     estimated scf accuracy    <       0.00297091 Ry

     total magnetization       =     1.00 Bohr mag/cell
     absolute magnetization    =     1.19 Bohr mag/cell

     iteration #  7     ecut=    40.00 Ry     beta= 0.70
     CG style diagonalization
     c_bands:  1 eigenvalues not converged
     ethr =  7.60E-07,  avg # of iterations =  3.2

     negative rho (up, down):  4.800E-01 9.921E-03

     total cpu time spent up to now is     1114.4 secs

     total energy              =   -1940.20881096 Ry
     Harris-Foulkes estimate   =   -1940.20919952 Ry
     estimated scf accuracy    <       0.00161221 Ry

     total magnetization       =     1.00 Bohr mag/cell
     absolute magnetization    =     1.20 Bohr mag/cell

     iteration #  8     ecut=    40.00 Ry     beta= 0.70
     CG style diagonalization
     ethr =  4.12E-07,  avg # of iterations =  3.3

     negative rho (up, down):  4.820E-01 9.430E-03

     total cpu time spent up to now is     1142.9 secs

     total energy              =   -1940.20897543 Ry
     Harris-Foulkes estimate   =   -1940.20901820 Ry
     estimated scf accuracy    <       0.00025156 Ry

     total magnetization       =     1.00 Bohr mag/cell
     absolute magnetization    =     1.21 Bohr mag/cell

     iteration #  9     ecut=    40.00 Ry     beta= 0.70
     CG style diagonalization
     ethr =  6.43E-08,  avg # of iterations =  3.2

     negative rho (up, down):  4.816E-01 9.527E-03

     total cpu time spent up to now is     1170.2 secs

     total energy              =   -1940.20897848 Ry
     Harris-Foulkes estimate   =   -1940.20900510 Ry
     estimated scf accuracy    <       0.00011695 Ry

     total magnetization       =     1.00 Bohr mag/cell
     absolute magnetization    =     1.22 Bohr mag/cell

     iteration # 10     ecut=    40.00 Ry     beta= 0.70
     CG style diagonalization
     ethr =  2.99E-08,  avg # of iterations =  3.1

     negative rho (up, down):  4.823E-01 9.497E-03

     total cpu time spent up to now is     1196.5 secs

     total energy              =   -1940.20898974 Ry
     Harris-Foulkes estimate   =   -1940.20899271 Ry
     estimated scf accuracy    <       0.00002631 Ry

     total magnetization       =     1.00 Bohr mag/cell
     absolute magnetization    =     1.22 Bohr mag/cell

     iteration # 11     ecut=    40.00 Ry     beta= 0.70
     CG style diagonalization
     ethr =  6.73E-09,  avg # of iterations =  3.4

     negative rho (up, down):  4.823E-01 9.537E-03

     total cpu time spent up to now is     1226.4 secs

     total energy              =   -1940.20899836 Ry
     Harris-Foulkes estimate   =   -1940.20899579 Ry
     estimated scf accuracy    <       0.00000468 Ry

     total magnetization       =     1.00 Bohr mag/cell
     absolute magnetization    =     1.22 Bohr mag/cell

     iteration # 12     ecut=    40.00 Ry     beta= 0.70
     CG style diagonalization
     ethr =  1.20E-09,  avg # of iterations =  3.6

     negative rho (up, down):  4.823E-01 9.537E-03

     total cpu time spent up to now is     1258.5 secs

     total energy              =   -1940.20900372 Ry
     Harris-Foulkes estimate   =   -1940.20900226 Ry
     estimated scf accuracy    <       0.00000114 Ry

     total magnetization       =     1.00 Bohr mag/cell
     absolute magnetization    =     1.22 Bohr mag/cell

     iteration # 13     ecut=    40.00 Ry     beta= 0.70
     CG style diagonalization
     ethr =  2.92E-10,  avg # of iterations =  3.5

     negative rho (up, down):  4.823E-01 9.546E-03
 
     Magnetic moment per site:
     atom:    1    charge:    0.8806    magn:    0.0001    constr:    0.0000
     atom:    2    charge:    0.8814    magn:    0.0018    constr:    0.0000
     atom:    3    charge:    0.8801    magn:    0.0010    constr:    0.0000
     atom:    4    charge:    0.8799    magn:    0.0000    constr:    0.0000
     atom:    5    charge:    0.8804    magn:    0.0009    constr:    0.0000
     atom:    6    charge:    0.8814    magn:   -0.0001    constr:    0.0000
     atom:    7    charge:    0.8806    magn:    0.0011    constr:    0.0000
     atom:    8    charge:    0.8824    magn:    0.0010    constr:    0.0000
     atom:    9    charge:    0.8865    magn:    0.0012    constr:    0.0000
     atom:   10    charge:    0.8801    magn:    0.0082    constr:    0.0000
     atom:   11    charge:    0.8845    magn:    0.0004    constr:    0.0000
     atom:   12    charge:    0.8819    magn:    0.0010    constr:    0.0000
     atom:   13    charge:    0.8823    magn:   -0.0001    constr:    0.0000
     atom:   14    charge:    0.8814    magn:   -0.0001    constr:    0.0000
     atom:   15    charge:    0.8829    magn:    0.0007    constr:    0.0000
     atom:   16    charge:    0.8900    magn:    0.0055    constr:    0.0000
     atom:   17    charge:    0.9076    magn:    0.0190    constr:    0.0000
     atom:   18    charge:    0.8924    magn:    0.0139    constr:    0.0000
     atom:   19    charge:    0.8987    magn:    0.0082    constr:    0.0000
     atom:   20    charge:    0.8819    magn:    0.0010    constr:    0.0000
     atom:   21    charge:    0.8804    magn:    0.0009    constr:    0.0000
     atom:   22    charge:    0.8802    magn:    0.0001    constr:    0.0000
     atom:   23    charge:    0.8801    magn:    0.0002    constr:    0.0000
     atom:   24    charge:    0.8771    magn:    0.0070    constr:    0.0000
     atom:   25    charge:    1.8097    magn:    0.1650    constr:    0.0000
     atom:   26    charge:    0.8923    magn:    0.0143    constr:    0.0000
     atom:   27    charge:    0.8845    magn:    0.0005    constr:    0.0000
     atom:   28    charge:    0.8799    magn:    0.0000    constr:    0.0000
     atom:   29    charge:    0.8807    magn:    0.0008    constr:    0.0000
     atom:   30    charge:    0.8815    magn:    0.0003    constr:    0.0000
     atom:   31    charge:    0.8836    magn:    0.0022    constr:    0.0000
     atom:   32    charge:    0.8770    magn:    0.0067    constr:    0.0000
     atom:   33    charge:    0.9074    magn:    0.0191    constr:    0.0000
     atom:   34    charge:    0.8801    magn:    0.0081    constr:    0.0000
     atom:   35    charge:    0.8800    magn:    0.0010    constr:    0.0000
     atom:   36    charge:    0.8817    magn:   -0.0000    constr:    0.0000
     atom:   37    charge:    0.8817    magn:    0.0002    constr:    0.0000
     atom:   38    charge:    0.8815    magn:    0.0002    constr:    0.0000
     atom:   39    charge:    0.8801    magn:    0.0001    constr:    0.0000
     atom:   40    charge:    0.8901    magn:    0.0056    constr:    0.0000
     atom:   41    charge:    0.8865    magn:    0.0013    constr:    0.0000
     atom:   42    charge:    0.8814    magn:    0.0018    constr:    0.0000
     atom:   43    charge:    0.8821    magn:    0.0013    constr:    0.0000
     atom:   44    charge:    0.8817    magn:   -0.0000    constr:    0.0000
     atom:   45    charge:    0.8807    magn:    0.0008    constr:    0.0000
     atom:   46    charge:    0.8802    magn:    0.0001    constr:    0.0000
     atom:   47    charge:    0.8829    magn:    0.0007    constr:    0.0000
     atom:   48    charge:    0.8824    magn:    0.0010    constr:    0.0000
     atom:   49    charge:    0.8806    magn:    0.0001    constr:    0.0000
     atom:   50    charge:    2.8702    magn:   -0.0005    constr:    0.0000
     atom:   51    charge:    2.8735    magn:   -0.0006    constr:    0.0000
     atom:   52    charge:    2.8707    magn:   -0.0020    constr:    0.0000
     atom:   53    charge:    2.8712    magn:   -0.0004    constr:    0.0000
     atom:   54    charge:    2.8703    magn:   -0.0004    constr:    0.0000
     atom:   55    charge:    2.8734    magn:    0.0004    constr:    0.0000
     atom:   56    charge:    2.8725    magn:    0.0003    constr:    0.0000
     atom:   57    charge:    2.8692    magn:    0.0019    constr:    0.0000
     atom:   58    charge:    2.8655    magn:    0.0008    constr:    0.0000
     atom:   59    charge:    2.8818    magn:   -0.0034    constr:    0.0000
     atom:   60    charge:    2.8717    magn:   -0.0045    constr:    0.0000
     atom:   61    charge:    2.8683    magn:    0.0012    constr:    0.0000
     atom:   62    charge:    2.8716    magn:    0.0022    constr:    0.0000
     atom:   63    charge:    2.8733    magn:    0.0004    constr:    0.0000
     atom:   64    charge:    2.8686    magn:   -0.0003    constr:    0.0000
     atom:   65    charge:    2.8710    magn:    0.0012    constr:    0.0000
     atom:   66    charge:    2.8704    magn:    0.0064    constr:    0.0000
     atom:   67    charge:    1.7388    magn:    0.0030    constr:    0.0000
     atom:   68    charge:    2.8981    magn:    0.0089    constr:    0.0000
     atom:   69    charge:    2.8682    magn:    0.0006    constr:    0.0000
     atom:   70    charge:    2.8703    magn:   -0.0004    constr:    0.0000
     atom:   71    charge:    2.8714    magn:   -0.0001    constr:    0.0000
     atom:   72    charge:    2.8697    magn:   -0.0002    constr:    0.0000
     atom:   73    charge:    2.8669    magn:   -0.0013    constr:    0.0000
     atom:   74    charge:    2.8564    magn:   -0.0018    constr:    0.0000
     atom:   75    charge:    1.7391    magn:   -0.0077    constr:    0.0000
     atom:   76    charge:    2.8719    magn:   -0.0050    constr:    0.0000
     atom:   77    charge:    2.8712    magn:   -0.0003    constr:    0.0000
     atom:   78    charge:    2.8686    magn:   -0.0004    constr:    0.0000
     atom:   79    charge:    2.8702    magn:   -0.0002    constr:    0.0000
     atom:   80    charge:    2.8760    magn:   -0.0002    constr:    0.0000
     atom:   81    charge:    2.8666    magn:   -0.0020    constr:    0.0000
     atom:   82    charge:    2.8705    magn:    0.0067    constr:    0.0000
     atom:   83    charge:    2.8817    magn:   -0.0046    constr:    0.0000
     atom:   84    charge:    2.8707    magn:   -0.0024    constr:    0.0000
     atom:   85    charge:    2.8690    magn:   -0.0007    constr:    0.0000
     atom:   86    charge:    2.8699    magn:    0.0001    constr:    0.0000
     atom:   87    charge:    2.8702    magn:   -0.0002    constr:    0.0000
     atom:   88    charge:    2.8697    magn:   -0.0002    constr:    0.0000
     atom:   89    charge:    2.8710    magn:    0.0014    constr:    0.0000
     atom:   90    charge:    2.8654    magn:    0.0004    constr:    0.0000
     atom:   91    charge:    2.8735    magn:   -0.0006    constr:    0.0000
     atom:   92    charge:    2.8709    magn:   -0.0002    constr:    0.0000
     atom:   93    charge:    2.8690    magn:   -0.0006    constr:    0.0000
     atom:   94    charge:    2.8686    magn:   -0.0003    constr:    0.0000
     atom:   95    charge:    2.8714    magn:   -0.0001    constr:    0.0000
     atom:   96    charge:    2.8686    magn:   -0.0003    constr:    0.0000
     atom:   97    charge:    2.8691    magn:    0.0019    constr:    0.0000
     atom:   98    charge:    2.8702    magn:   -0.0005    constr:    0.0000

     total cpu time spent up to now is     1288.6 secs

     End of self-consistent calculation

 ------ SPIN UP ------------


          k = 0.0000 0.0000 0.0000 ( 77079 PWs)   bands (ev):

   -21.7428 -21.4977 -21.3683 -21.3552 -21.3353 -21.3331 -21.2769 -20.8244
   -20.6429 -20.6234 -20.6223 -20.5524 -20.5231 -20.3860 -20.2855 -20.2838
   -20.2739 -20.1673 -20.1222 -19.5668 -19.4070 -19.3827 -19.3822 -19.3643
   -19.3572 -19.3450 -19.3448 -19.3405 -19.3295 -19.1516 -19.1400 -19.0267
   -18.9677 -18.9602 -18.9529 -18.7735 -18.7660 -18.5404 -18.5287 -18.5235
   -18.4902 -18.4310 -18.4186 -18.3709 -18.3573 -18.3175 -18.3162 -17.1767
   -15.1980 -13.1171 -12.7647 -12.7472 -12.7397 -12.7072 -12.6876 -12.6346
[...]
     atom:   55    charge:    2.7433    magn:    0.0003    constr:    0.0000
     atom:   56    charge:    2.7428    magn:    0.0002    constr:    0.0000
     atom:   57    charge:    2.7432    magn:    0.0017    constr:    0.0000
     atom:   58    charge:    2.7432    magn:    0.0006    constr:    0.0000
     atom:   59    charge:    2.7393    magn:   -0.0033    constr:    0.0000
     atom:   60    charge:    2.7311    magn:   -0.0044    constr:    0.0000
     atom:   61    charge:    2.7476    magn:    0.0010    constr:    0.0000
     atom:   62    charge:    2.7426    magn:    0.0020    constr:    0.0000
     atom:   63    charge:    2.7433    magn:    0.0003    constr:    0.0000
     atom:   64    charge:    2.7490    magn:   -0.0003    constr:    0.0000
     atom:   65    charge:    2.7484    magn:    0.0013    constr:    0.0000
     atom:   66    charge:    2.7398    magn:    0.0063    constr:    0.0000
     atom:   67    charge:    1.6730    magn:   -0.0034    constr:    0.0000
     atom:   68    charge:    2.7577    magn:    0.0096    constr:    0.0000
     atom:   69    charge:    2.7476    magn:    0.0010    constr:    0.0000
     atom:   70    charge:    2.7467    magn:   -0.0004    constr:    0.0000
     atom:   71    charge:    2.7470    magn:   -0.0001    constr:    0.0000
     atom:   72    charge:    2.7428    magn:   -0.0003    constr:    0.0000
     atom:   73    charge:    2.7395    magn:   -0.0019    constr:    0.0000
     atom:   74    charge:    2.7296    magn:   -0.0021    constr:    0.0000
     atom:   75    charge:    1.6710    magn:   -0.0028    constr:    0.0000
     atom:   76    charge:    2.7311    magn:   -0.0044    constr:    0.0000
     atom:   77    charge:    2.7462    magn:   -0.0003    constr:    0.0000
     atom:   78    charge:    2.7454    magn:   -0.0003    constr:    0.0000
     atom:   79    charge:    2.7434    magn:   -0.0002    constr:    0.0000
     atom:   80    charge:    2.7425    magn:   -0.0003    constr:    0.0000
     atom:   81    charge:    2.7395    magn:   -0.0018    constr:    0.0000
     atom:   82    charge:    2.7398    magn:    0.0063    constr:    0.0000
     atom:   83    charge:    2.7393    magn:   -0.0033    constr:    0.0000
     atom:   84    charge:    2.7373    magn:   -0.0019    constr:    0.0000
     atom:   85    charge:    2.7428    magn:   -0.0005    constr:    0.0000
     atom:   86    charge:    2.7435    magn:    0.0001    constr:    0.0000
     atom:   87    charge:    2.7434    magn:   -0.0002    constr:    0.0000
     atom:   88    charge:    2.7428    magn:   -0.0003    constr:    0.0000
     atom:   89    charge:    2.7484    magn:    0.0012    constr:    0.0000
     atom:   90    charge:    2.7432    magn:    0.0006    constr:    0.0000
     atom:   91    charge:    2.7454    magn:   -0.0005    constr:    0.0000
     atom:   92    charge:    2.7486    magn:   -0.0002    constr:    0.0000
     atom:   93    charge:    2.7428    magn:   -0.0005    constr:    0.0000
     atom:   94    charge:    2.7454    magn:   -0.0003    constr:    0.0000
     atom:   95    charge:    2.7470    magn:   -0.0001    constr:    0.0000
     atom:   96    charge:    2.7490    magn:   -0.0003    constr:    0.0000
     atom:   97    charge:    2.7432    magn:    0.0017    constr:    0.0000
     atom:   98    charge:    2.7472    magn:   -0.0004    constr:    0.0000

     total cpu time spent up to now is     5031.9 secs

     End of self-consistent calculation

 ------ SPIN UP ------------


          k = 0.0000 0.0000 0.0000 ( 77434 PWs)   bands (ev):

   -21.7348 -21.4769 -21.3699 -21.3674 -21.3497 -21.3200 -21.2323 -20.7976
   -20.6346 -20.6306 -20.6120 -20.5376 -20.5187 -20.3917 -20.2770 -20.2741
   -20.2550 -20.1349 -20.0889 -19.5396 -19.3823 -19.3765 -19.3752 -19.3641
   -19.3626 -19.3552 -19.3545 -19.3381 -19.3049 -19.1492 -19.1463 -19.0132
   -18.9628 -18.9551 -18.9323 -18.7643 -18.7500 -18.5254 -18.5224 -18.5150
   -18.5012 -18.4375 -18.4337 -18.3777 -18.3607 -18.3256 -18.3197 -17.0146
   -15.0926 -13.0998 -12.7506 -12.7486 -12.7389 -12.7058 -12.6954 -12.6442
   -12.5431 -12.5144 -12.5139 -12.4749 -12.4134 -12.1300 -12.0570 -12.0412
   -12.0237 -11.9660 -11.9520 -11.5211 -11.4018 -11.3926 -11.3716 -11.3669
   -11.3636 -11.3563 -11.3544 -11.3106 -11.2875 -11.1012 -11.0649 -10.8555
   -10.7062 -10.6959 -10.6738 -10.6619 -10.5199 -10.0515 -10.0330  -9.9869
    -9.9205  -9.8658  -9.8208  -9.3681  -9.3246  -9.3052  -9.2805  -9.2651
    -9.2614  -9.2219  -9.0222  -8.9160  -8.9141  -8.8850  -8.8841  -8.8797
    -8.8711  -8.8499  -8.8399  -8.8392  -8.8260  -8.8134  -8.8066  -8.8038
    -8.8033  -8.8014  -8.7861  -8.7752  -8.7268  -8.7044  -8.6717  -8.6553
    -8.4699  -8.4663  -8.1844  -8.1840  -8.1634  -8.1306  -8.0788  -7.8921
    -7.8891  -7.8098  -7.8054  -7.7909  -7.7258  -7.7165  -7.5338  -7.4890
    -7.4866  -7.4432  -7.4266  -7.4238  -7.4158  -7.4040  -7.3824  -7.3390
    -7.3283  -7.3239  -7.3082  -7.3005  -7.2327  -7.2230  -7.2056  -7.0509
    -7.0132  -6.9980  -6.9541  -6.8217  -6.6693  -6.5658  -6.2126  -6.1714
    -6.1625  -6.1357  -6.1253  -6.0521  -6.0478  -6.0464  -6.0349  -6.0340
    -6.0306  -6.0253  -6.0192  -5.9910  -5.8698  -5.8461  -5.8081  -5.7259
    -5.5091  -5.4395  -5.4349  -5.4186  -5.3472  -5.2501  -5.2012  -5.1653
    -4.7722  -4.7667  -4.7495  -4.7479  -4.6809  -4.6400  -4.5433  -4.5164
    -4.4796  -4.4737  -4.3257  -3.5485  -0.0944   0.1801   0.7045   0.7084
     0.7213   0.7219   0.7318   0.7436   0.7981   0.8004   0.8174   0.8190
     0.8193   0.8322   0.8410   0.8620   0.8702   0.8788   0.9074   0.9365
     0.9368   1.1280   1.2144   1.2226   1.2400   1.2663   1.2949   1.3285
     1.3289   1.3311   1.3415   1.3444   1.3749   1.4405   1.4408   1.4422
     1.4507   1.4537   1.4729   1.8829   2.0987   2.1018   2.1038   2.1092
     2.1156   2.1161   2.1320   2.3054   2.3203

 ------ SPIN DOWN ----------


          k = 0.0000 0.0000 0.0000 ( 77434 PWs)   bands (ev):

   -21.7257 -21.4397 -21.3681 -21.3663 -21.3477 -21.3154 -21.2109 -20.7703
   -20.6336 -20.6270 -20.6074 -20.5348 -20.5123 -20.3837 -20.2736 -20.2709
   -20.2508 -20.1303 -20.0714 -19.5235 -19.3812 -19.3745 -19.3744 -19.3627
   -19.3607 -19.3550 -19.3529 -19.3340 -19.2986 -19.1469 -19.1407 -19.0092
   -18.9623 -18.9532 -18.9287 -18.7618 -18.7416 -18.5249 -18.5195 -18.5138
   -18.4987 -18.4359 -18.4330 -18.3761 -18.3607 -18.3242 -18.3175 -16.8919
   -15.0361 -13.0106 -12.7451 -12.7447 -12.7337 -12.7020 -12.6919 -12.6366
   -12.5394 -12.5085 -12.5079 -12.4635 -12.3989 -12.1181 -12.0520 -12.0354
   -12.0207 -11.9591 -11.9424 -11.4979 -11.3868 -11.3844 -11.3688 -11.3647
   -11.3608 -11.3527 -11.3518 -11.3009 -11.2761 -11.0923 -11.0457 -10.8371
   -10.7017 -10.6924 -10.6640 -10.6565 -10.5042 -10.0425 -10.0245  -9.9802
    -9.9105  -9.8584  -9.8103  -9.3596  -9.3127  -9.2846  -9.2760  -9.2604
    -9.2582  -9.2195  -9.0094  -8.9091  -8.9020  -8.8841  -8.8818  -8.8757
    -8.8685  -8.8455  -8.8360  -8.8236  -8.8105  -8.8052  -8.7993  -8.7990
    -8.7986  -8.7944  -8.7706  -8.7554  -8.7193  -8.6595  -8.6430  -8.6189
    -8.4617  -8.4553  -8.1837  -8.1825  -8.1624  -8.1185  -8.0706  -7.8866
    -7.8143  -7.8016  -7.7951  -7.7740  -7.7091  -7.6785  -7.5243  -7.4843
    -7.4827  -7.4402  -7.4251  -7.4225  -7.4009  -7.3806  -7.3637  -7.3369
    -7.3152  -7.3121  -7.2986  -7.2915  -7.1987  -7.1943  -7.1685  -7.0399
    -7.0106  -6.9963  -6.9412  -6.8078  -6.6638  -6.5584  -6.1679  -6.1615
    -6.1343  -6.1157  -6.1142  -6.0466  -6.0421  -6.0399  -6.0279  -6.0253
    -6.0199  -6.0197  -6.0047  -5.9652  -5.8408  -5.8221  -5.7873  -5.7180
    -5.4762  -5.4337  -5.4233  -5.4068  -5.3105  -5.2313  -5.1896  -5.1431
    -4.7620  -4.7526  -4.7417  -4.7415  -4.6674  -4.6347  -4.5281  -4.5107
    -4.4750  -4.4681  -4.2443  -3.4446   0.1888   0.4405   0.7124   0.7339
     0.7419   0.7476   0.7617   0.7787   0.7965   0.8188   0.8201   0.8218
     0.8259   0.8424   0.8490   0.8826   0.8962   0.9204   0.9497   0.9516
     1.0131   1.1771   1.2525   1.2646   1.2867   1.3023   1.3153   1.3284
     1.3290   1.3319   1.3499   1.3499   1.4019   1.4391   1.4394   1.4408
     1.4505   1.4531   1.4796   1.8877   2.1057   2.1067   2.1161   2.1290
     2.1353   2.1504   2.1951   2.2106   2.3245

     highest occupied, lowest unoccupied level (ev):    -4.2443   -3.5485

!    total energy              =   -1940.22694344 Ry
     Harris-Foulkes estimate   =   -1940.22694344 Ry
     estimated scf accuracy    <          5.8E-09 Ry

     total all-electron energy =     -7770.051420 Ry

     The total energy is the sum of the following terms:

     one-electron contribution =  -10647.79252383 Ry
     hartree contribution      =    5409.62429782 Ry
     xc contribution           =    -430.71298328 Ry
     ewald contribution        =    4372.10078485 Ry
     DFT-D3 Dispersion         =      -0.27019579 Ry
     one-center paw contrib.   =    -643.17632321 Ry

     total magnetization       =     1.00 Bohr mag/cell
     absolute magnetization    =     1.21 Bohr mag/cell

     convergence has been achieved in  16 iterations

     negative rho (up, down):  4.822E-01 8.682E-03

     Forces acting on atoms (cartesian axes, Ry/au):

     atom    1 type  1   force =     0.00018252   -0.00035284    0.00000000
     atom    2 type  1   force =     0.00001160   -0.00024567    0.00000000
     atom    3 type  1   force =    -0.00024084    0.00009898    0.00000000
     atom    4 type  1   force =    -0.00029081    0.00061119    0.00000000
     atom    5 type  1   force =     0.00011914    0.00001920    0.00000000
     atom    6 type  1   force =    -0.00003705    0.00012132    0.00000000
     atom    7 type  1   force =    -0.00013318   -0.00005663    0.00000000
     atom    8 type  1   force =    -0.00013797    0.00025859    0.00000000
     atom    9 type  1   force =     0.00029542   -0.00008923    0.00000000
     atom   10 type  1   force =    -0.00013876    0.00005248    0.00000000
     atom   11 type  1   force =    -0.00051705    0.00013307    0.00000000
     atom   12 type  1   force =    -0.00016233    0.00043848    0.00000000
     atom   13 type  1   force =    -0.00022751    0.00012416    0.00000000
     atom   14 type  1   force =    -0.00012844   -0.00013297    0.00000000
     atom   15 type  1   force =    -0.00001655    0.00016081    0.00000000
     atom   16 type  1   force =     0.00020848    0.00018644    0.00000000
     atom   17 type  1   force =     0.00049409   -0.00021396    0.00000000
     atom   18 type  1   force =    -0.00027873    0.00019071    0.00000000
     atom   19 type  1   force =    -0.00020970    0.00023694    0.00000000
     atom   20 type  1   force =    -0.00030544   -0.00006992    0.00000000
     atom   21 type  1   force =     0.00015584   -0.00017179    0.00000000
     atom   22 type  1   force =     0.00024083   -0.00041994    0.00000000
     atom   23 type  1   force =     0.00009843    0.00052254    0.00000000
     atom   24 type  1   force =     0.00009474    0.00018786    0.00000000
     atom   25 type  4   force =    -0.00070049   -0.00086207    0.00000000
     atom   26 type  1   force =     0.00017420    0.00012299    0.00000000
     atom   27 type  1   force =    -0.00021986    0.00043859    0.00000000
     atom   28 type  1   force =    -0.00049867   -0.00014054    0.00000000
     atom   29 type  1   force =     0.00026836   -0.00035980    0.00000000
     atom   30 type  1   force =     0.00030035   -0.00034744    0.00000000
     atom   31 type  1   force =    -0.00017390    0.00004272    0.00000000
     atom   32 type  1   force =    -0.00009576   -0.00012233    0.00000000
     atom   33 type  1   force =    -0.00003593   -0.00041267    0.00000000
     atom   34 type  1   force =    -0.00011362    0.00006580    0.00000000
     atom   35 type  1   force =    -0.00015923    0.00003121    0.00000000
     atom   36 type  1   force =     0.00000091   -0.00025234    0.00000000
     atom   37 type  1   force =     0.00048872   -0.00034005    0.00000000
     atom   38 type  1   force =     0.00039952   -0.00010899    0.00000000
     atom   39 type  1   force =    -0.00040722   -0.00024627    0.00000000
     atom   40 type  1   force =    -0.00023068   -0.00023055    0.00000000
     atom   41 type  1   force =     0.00010353   -0.00023620    0.00000000
     atom   42 type  1   force =     0.00014051   -0.00006617    0.00000000
     atom   43 type  1   force =     0.00006826   -0.00019670    0.00000000
     atom   44 type  1   force =     0.00008635   -0.00000607    0.00000000
     atom   45 type  1   force =     0.00031012   -0.00005399    0.00000000
     atom   46 type  1   force =     0.00039886    0.00008464    0.00000000
     atom   47 type  1   force =    -0.00021959   -0.00001139    0.00000000
     atom   48 type  1   force =    -0.00043305   -0.00007242    0.00000000
     atom   49 type  1   force =     0.00024547   -0.00020129    0.00000000
     atom   50 type  2   force =     0.00010563    0.00028562    0.00000000
     atom   51 type  2   force =     0.00011466    0.00010232    0.00000000
     atom   52 type  2   force =    -0.00026735    0.00008432    0.00000000
     atom   53 type  2   force =    -0.00006267    0.00013787    0.00000000
     atom   54 type  2   force =     0.00066350    0.00001097    0.00000000
     atom   55 type  2   force =    -0.00020358   -0.00012271    0.00000000
     atom   56 type  2   force =    -0.00039929    0.00030222    0.00000000
     atom   57 type  2   force =    -0.00039630    0.00041061    0.00000000
     atom   58 type  2   force =     0.00004416    0.00019916    0.00000000
     atom   59 type  2   force =    -0.00022763   -0.00011711    0.00000000
     atom   60 type  2   force =    -0.00081026    0.00012452    0.00000000
     atom   61 type  2   force =    -0.00026165    0.00002792    0.00000000
     atom   62 type  2   force =     0.00015847   -0.00016423    0.00000000
     atom   63 type  2   force =    -0.00004836    0.00027927    0.00000000
     atom   64 type  2   force =    -0.00011074    0.00022102    0.00000000
     atom   65 type  2   force =     0.00000823   -0.00013537    0.00000000
     atom   66 type  2   force =     0.00012183    0.00005329    0.00000000
     atom   67 type  3   force =     0.00048564    0.00024773    0.00000000
     atom   68 type  2   force =    -0.00094493    0.00021245    0.00000000
     atom   69 type  2   force =    -0.00037716    0.00009820    0.00000000
     atom   70 type  2   force =     0.00015919   -0.00054814    0.00000000
     atom   71 type  2   force =     0.00028019   -0.00027969    0.00000000
     atom   72 type  2   force =     0.00002814   -0.00008925    0.00000000
     atom   73 type  2   force =     0.00033121   -0.00005373    0.00000000
     atom   74 type  2   force =     0.00074683   -0.00032012    0.00000000
     atom   75 type  5   force =     0.00014326    0.00090823    0.00000000
     atom   76 type  2   force =    -0.00053309    0.00061361    0.00000000
     atom   77 type  2   force =    -0.00028144    0.00002803    0.00000000
     atom   78 type  2   force =     0.00010711   -0.00050700    0.00000000
     atom   79 type  2   force =    -0.00004127    0.00002684    0.00000000
     atom   80 type  2   force =     0.00046961   -0.00023253    0.00000000
     atom   81 type  2   force =     0.00019379   -0.00020623    0.00000000
     atom   82 type  2   force =     0.00035918   -0.00026136    0.00000000
     atom   83 type  2   force =     0.00003288    0.00027028    0.00000000
     atom   84 type  2   force =    -0.00018617    0.00030571    0.00000000
     atom   85 type  2   force =     0.00003669   -0.00012819    0.00000000
     atom   86 type  2   force =     0.00036468   -0.00008602    0.00000000
     atom   87 type  2   force =     0.00004807    0.00009188    0.00000000
     atom   88 type  2   force =     0.00014255    0.00000563    0.00000000
     atom   89 type  2   force =     0.00021165   -0.00007219    0.00000000
     atom   90 type  2   force =     0.00000471   -0.00014796    0.00000000
     atom   91 type  2   force =     0.00010957   -0.00001941    0.00000000
     atom   92 type  2   force =     0.00015676    0.00008061    0.00000000
     atom   93 type  2   force =     0.00026229    0.00023546    0.00000000
     atom   94 type  2   force =     0.00063895    0.00023623    0.00000000
     atom   95 type  2   force =     0.00052097   -0.00014633    0.00000000
     atom   96 type  2   force =    -0.00017165   -0.00009671    0.00000000
     atom   97 type  2   force =    -0.00044774    0.00011994    0.00000000
     atom   98 type  2   force =    -0.00005304   -0.00009417    0.00000000

     Total force =     0.004019     Total SCF correction =     0.000117


     Computing stress (Cartesian axis) and pressure


     negative rho (up, down):  4.822E-01 8.682E-03
          total   stress  (Ry/bohr**3)                   (kbar)     P=   -0.13
   0.00000036  -0.00000005   0.00000000          0.05     -0.01      0.00
  -0.00000005   0.00000041   0.00000000         -0.01      0.06      0.00
   0.00000000   0.00000000  -0.00000335          0.00      0.00     -0.49


     Writing output data file C2Cn.save/
 
     init_run     :      9.69s CPU     10.23s WALL (       2 calls)
     electrons    :   4772.36s CPU   4830.86s WALL (      10 calls)
     update_pot   :     27.00s CPU     27.21s WALL (       8 calls)
     forces       :     38.97s CPU     40.34s WALL (      10 calls)
     stress       :    121.18s CPU    122.26s WALL (      10 calls)

     Called by init_run:
     wfcinit      :      3.84s CPU      4.11s WALL (       2 calls)
     potinit      :      2.09s CPU      2.17s WALL (       2 calls)
     hinit0       :      2.76s CPU      2.83s WALL (       2 calls)

     Called by electrons:
     c_bands      :   4637.99s CPU   4685.60s WALL (     111 calls)
     sum_band     :     69.46s CPU     73.52s WALL (     111 calls)
     v_of_rho     :     22.30s CPU     23.11s WALL (     118 calls)
     newd         :      7.64s CPU     10.19s WALL (     118 calls)
     PAW_pot      :     25.34s CPU     25.79s WALL (     126 calls)
     mix_rho      :      1.75s CPU      2.11s WALL (     111 calls)

     Called by c_bands:
     init_us_2    :      4.29s CPU      4.52s WALL (     504 calls)
     rcgdiagg     :   4506.96s CPU   4550.87s WALL (     244 calls)
     wfcrot       :    130.86s CPU    134.13s WALL (     222 calls)

     Called by sum_band:
     sum_band:bec :      0.18s CPU      0.19s WALL (     238 calls)
     addusdens    :      8.24s CPU     11.10s WALL (     111 calls)

     Called by *cgdiagg:
     h_psi        :   2322.87s CPU   2345.88s WALL (  197839 calls)
     s_psi        :   1315.75s CPU   1328.94s WALL (  395456 calls)
     rdiaghg      :      4.83s CPU      5.04s WALL (     222 calls)

     Called by h_psi:
     h_psi:pot    :   2320.34s CPU   2343.31s WALL (  197839 calls)
     h_psi:calbec :    813.00s CPU    820.54s WALL (  197839 calls)
     vloc_psi     :    811.32s CPU    821.99s WALL (  197839 calls)
     add_vuspsi   :    693.46s CPU    698.76s WALL (  197839 calls)
     hs_1psi      :   2878.42s CPU   2905.84s WALL (  197617 calls)
     s_1psi       :   1349.10s CPU   1362.06s WALL (  197617 calls)

     General routines
     calbec       :   1520.28s CPU   1536.07s WALL (  395794 calls)
     fft          :     18.77s CPU     19.11s WALL (    2330 calls)
     ffts         :      1.10s CPU      1.13s WALL (     222 calls)
     fftw         :    763.67s CPU    773.73s WALL (  477736 calls)
 
     Parallel routines
     fft_scatt_xy :     71.53s CPU     72.18s WALL (  480288 calls)
     fft_scatt_yz :    229.51s CPU    233.27s WALL (  480288 calls)
 
     PWSCF        :      1h23m CPU      1h24m WALL

 
   This run was terminated on:   1:49:55   9Jun2021            

=------------------------------------------------------------------------------=
   JOB DONE.
=------------------------------------------------------------------------------=
