
     Program PWSCF v.6.4.1 starts on 21Sep2021 at 17:58:34 

     This program is part of the open-source Quantum ESPRESSO suite
     for quantum simulation of materials; please cite
         "P. Giannozzi et al., J. Phys.:Condens. Matter 21 395502 (2009);
         "P. Giannozzi et al., J. Phys.:Condens. Matter 29 465901 (2017);
          URL http://www.quantum-espresso.org", 
     in publications or presentations arising from this work. More details at
     http://www.quantum-espresso.org/quote

     Parallel version (MPI), running on    64 processors

     MPI processes distributed on     2 nodes
     R & G space division:  proc/nbgrp/npool/nimage =      64
     Waiting for input...
     Reading input from standard input

     Current dimensions of program PWSCF are:
     Max number of different atomic species (ntypx) = 10
     Max number of k-points (npk) =  40000
     Max angular momentum in pseudopotentials (lmaxx) =  3

     IMPORTANT: XC functional enforced from input :
     Exchange-correlation      = HSE ( 1  4 12  4 0 0)
     EXX-fraction              =        0.25
     Using LIBXC version       =    4   3   4
     Any further DFT definition will be discarded
     Please, verify this is what you really want

               file N.pbe-n-kjpaw_psl.1.0.0.UPF: wavefunction(s)  2S renormalized
               file C.pbe-n-kjpaw_psl.1.0.0.UPF: wavefunction(s)  2S 2P renormalized
               file C.pbe-n-kjpaw_psl.1.0.0.UPF: wavefunction(s)  2S 2P renormalized
               file C.pbe-n-kjpaw_psl.1.0.0.UPF: wavefunction(s)  2S 2P renormalized
     EXX fraction changed:   0.32
     EXX Screening parameter changed:    0.0455000

     --------------------------------------------
     Parameters for DFT-D3 Dispersion Correction:
     --------------------------------------------
       Reference C6 values for interpolation: 

         atom   Coordination number   C6
         B          0.000           214.36
         B          0.971           150.74
         B          1.944           106.23
         B          2.913            62.89
         B          4.586            56.06
         C1         0.000            98.23
         C1         0.987            86.49
         C1         1.998            58.72
         C1         2.999            51.56
         C1         3.984            36.41
         C2         0.000            98.23
         C2         0.987            86.49
         C2         1.998            58.72
         C2         2.999            51.56
         C2         3.984            36.41
         C3         0.000            98.23
         C3         0.987            86.49
         C3         1.998            58.72
         C3         2.999            51.56
         C3         3.984            36.41
         N          0.000            50.54
         N          0.994            44.25
         N          2.014            39.35
         N          2.990            31.16

       Values used:

         atom   Coordination number  R0_AB[au]  C6      C8
         B          3.325            3.039     62.90   2506.24
         B          3.317            3.039     62.90   2506.44
         B          3.317            3.039     62.90   2506.43
         B          3.325            3.039     62.90   2506.25
         B          3.327            3.039     62.90   2506.21
         B          3.324            3.039     62.90   2506.27
         B          3.326            3.039     62.90   2506.22
         B          3.325            3.039     62.90   2506.26
         B          3.323            3.039     62.90   2506.30
         B          3.303            3.039     62.91   2506.76
         B          3.322            3.039     62.90   2506.33
         B          3.329            3.039     62.90   2506.15
         B          3.325            3.039     62.90   2506.24
         B          3.324            3.039     62.90   2506.27
         B          3.325            3.039     62.90   2506.26
         B          3.327            3.039     62.90   2506.21
         B          3.297            3.039     62.91   2506.88
         B          3.297            3.039     62.91   2506.90
         B          3.336            3.039     62.89   2505.99
         B          3.329            3.039     62.90   2506.15
         B          3.327            3.039     62.90   2506.21
         B          3.323            3.039     62.90   2506.31
         B          3.319            3.039     62.90   2506.40
         B          3.314            3.039     62.90   2506.51
         C2         3.249            2.750     49.43   1429.56
         B          3.297            3.039     62.91   2506.90
         B          3.322            3.039     62.90   2506.33
         B          3.325            3.039     62.90   2506.25
         B          3.321            3.039     62.90   2506.36
         B          3.319            3.039     62.90   2506.39
         B          3.315            3.039     62.90   2506.50
         B          3.314            3.039     62.90   2506.51
         B          3.297            3.039     62.91   2506.88
         B          3.303            3.039     62.91   2506.76
         B          3.317            3.039     62.90   2506.43
         B          3.316            3.039     62.90   2506.45
         B          3.318            3.039     62.90   2506.42
         B          3.319            3.039     62.90   2506.39
         B          3.319            3.039     62.90   2506.40
         B          3.327            3.039     62.90   2506.21
         B          3.323            3.039     62.90   2506.30
         B          3.317            3.039     62.90   2506.44
         B          3.319            3.039     62.90   2506.40
         B          3.316            3.039     62.90   2506.45
         B          3.321            3.039     62.90   2506.36
         B          3.323            3.039     62.90   2506.31
         B          3.325            3.039     62.90   2506.26
         B          3.325            3.039     62.90   2506.26
         B          3.325            3.039     62.90   2506.24
         N          3.129            2.478     31.22    688.74
         N          3.128            2.478     31.22    688.75
         N          3.125            2.478     31.22    688.79
         N          3.128            2.478     31.22    688.75
         N          3.130            2.478     31.22    688.73
         N          3.129            2.478     31.22    688.75
         N          3.129            2.478     31.22    688.75
         N          3.129            2.478     31.22    688.75
         N          3.129            2.478     31.22    688.74
         N          3.124            2.478     31.22    688.79
         N          3.123            2.478     31.22    688.80
         N          3.132            2.478     31.22    688.72
         N          3.130            2.478     31.22    688.74
         N          3.129            2.478     31.22    688.75
         N          3.130            2.478     31.22    688.74
         N          3.129            2.478     31.22    688.74
         N          3.132            2.478     31.22    688.71
         C1         3.192            2.750     50.14   1450.24
         N          3.134            2.478     31.22    688.70
         N          3.132            2.478     31.22    688.72
         N          3.130            2.478     31.22    688.73
         N          3.129            2.478     31.22    688.75
         N          3.127            2.478     31.22    688.76
         N          3.126            2.478     31.22    688.78
         N          3.155            2.478     31.21    688.52
         C3         3.192            2.750     50.14   1450.24
         N          3.123            2.478     31.22    688.80
         N          3.128            2.478     31.22    688.75
         N          3.127            2.478     31.22    688.77
         N          3.127            2.478     31.22    688.76
         N          3.127            2.478     31.22    688.77
         N          3.126            2.478     31.22    688.78
         N          3.132            2.478     31.22    688.71
         N          3.124            2.478     31.22    688.79
         N          3.125            2.478     31.22    688.79
         N          3.126            2.478     31.22    688.77
         N          3.126            2.478     31.22    688.77
         N          3.127            2.478     31.22    688.76
         N          3.127            2.478     31.22    688.76
         N          3.129            2.478     31.22    688.74
         N          3.129            2.478     31.22    688.74
         N          3.128            2.478     31.22    688.75
         N          3.129            2.478     31.22    688.74
         N          3.126            2.478     31.22    688.77
         N          3.127            2.478     31.22    688.77
         N          3.129            2.478     31.22    688.75
         N          3.130            2.478     31.22    688.74
         N          3.129            2.478     31.22    688.75
         N          3.129            2.478     31.22    688.74

         Molecular C6 ( Ry / a.u.^6 ) =    437698.51


     gamma-point specific algorithms are used
     Message from routine setup :
     BEWARE: nonlinear core correction is not consistent with hybrid XC

     Subspace diagonalization in iterative solution of the eigenvalue problem:
     one sub-group per band group will be used
     scalapack distributed-memory algorithm (size of sub-group:  5*  5 procs)

     EXX: grid of k+q points same as grid of k-points
 
     Parallelization info
     --------------------
     sticks:   dense  smooth     PW     G-vecs:    dense   smooth      PW
     Min          93      93     22                 6822     6822     838
     Max          96      96     24                 6840     6840     864
     Sum        6105    6105   1519               437235   437235   54687
 


     bravais-lattice index     =            0
     lattice parameter (alat)  =      33.2346  a.u.
     unit-cell volume          =   36184.4017 (a.u.)^3
     number of atoms/cell      =           98
     number of atomic types    =            5
     number of electrons       =       391.00
     number of Kohn-Sham states=          245
     kinetic-energy cutoff     =      20.0000  Ry
     charge density cutoff     =      80.0000  Ry
     cutoff for Fock operator  =      80.0000  Ry
     convergence threshold     =      1.0E-06
     mixing beta               =       0.7000
     number of iterations used =            8  plain     mixing
     Exchange-correlation      = HSE ( 1  4 12  4 0 0)
     EXX-fraction              =        0.32
     Using LIBXC version       =    4   3   4

     celldm(1)=  33.234611  celldm(2)=   0.000000  celldm(3)=   0.000000
     celldm(4)=   0.000000  celldm(5)=   0.000000  celldm(6)=   0.000000

     crystal axes: (cart. coord. in units of alat)
               a(1) = (   1.000640  -0.000349   0.000000 )  
               a(2) = (  -0.500622   0.866405   0.000000 )  
               a(3) = (   0.000000   0.000000   1.137204 )  

     reciprocal axes: (cart. coord. in units 2 pi/alat)
               b(1) = (  0.999562  0.577562  0.000000 )  
               b(2) = (  0.000402  1.154427  0.000000 )  
               b(3) = (  0.000000  0.000000  0.879350 )  


     PseudoPot. # 1 for B  read from file:
     ./pseudo/B.pbe-n-kjpaw_psl.1.0.0.UPF
     MD5 check sum: 8c825a5969375aca5c2c6ad5945b3059
     Pseudo is Projector augmented-wave + core cor, Zval =  3.0
     Generated using "atomic" code by A. Dal Corso v.6.3
     Shape of augmentation charge: PSQ
     Using radial grid of 1059 points,  4 beta functions with: 
                l(1) =   0
                l(2) =   0
                l(3) =   1
                l(4) =   1
     Q(r) pseudized with 0 coefficients 


     PseudoPot. # 2 for N  read from file:
     ./pseudo/N.pbe-n-kjpaw_psl.1.0.0.UPF
     MD5 check sum: 14c48229446f9f2d411169a3abcbc3fa
     Pseudo is Projector augmented-wave + core cor, Zval =  5.0
     Generated using "atomic" code by A. Dal Corso v.6.3
     Shape of augmentation charge: PSQ
     Using radial grid of 1085 points,  4 beta functions with: 
                l(1) =   0
                l(2) =   0
                l(3) =   1
                l(4) =   1
     Q(r) pseudized with 0 coefficients 


     PseudoPot. # 3 for C  read from file:
     ./pseudo/C.pbe-n-kjpaw_psl.1.0.0.UPF
     MD5 check sum: 5f16ad9a65e90284d1d834d4ab3b0f7d
     Pseudo is Projector augmented-wave + core cor, Zval =  4.0
     Generated using "atomic" code by A. Dal Corso v.6.3
     Shape of augmentation charge: PSQ
     Using radial grid of 1073 points,  4 beta functions with: 
                l(1) =   0
                l(2) =   0
                l(3) =   1
                l(4) =   1
     Q(r) pseudized with 0 coefficients 


     PseudoPot. # 4 for C  read from file:
     ./pseudo/C.pbe-n-kjpaw_psl.1.0.0.UPF
     MD5 check sum: 5f16ad9a65e90284d1d834d4ab3b0f7d
     Pseudo is Projector augmented-wave + core cor, Zval =  4.0
     Generated using "atomic" code by A. Dal Corso v.6.3
     Shape of augmentation charge: PSQ
     Using radial grid of 1073 points,  4 beta functions with: 
                l(1) =   0
                l(2) =   0
                l(3) =   1
                l(4) =   1
     Q(r) pseudized with 0 coefficients 


     PseudoPot. # 5 for C  read from file:
     ./pseudo/C.pbe-n-kjpaw_psl.1.0.0.UPF
     MD5 check sum: 5f16ad9a65e90284d1d834d4ab3b0f7d
     Pseudo is Projector augmented-wave + core cor, Zval =  4.0
     Generated using "atomic" code by A. Dal Corso v.6.3
     Shape of augmentation charge: PSQ
     Using radial grid of 1073 points,  4 beta functions with: 
                l(1) =   0
                l(2) =   0
                l(3) =   1
                l(4) =   1
     Q(r) pseudized with 0 coefficients 


     atomic species   valence    mass     pseudopotential
        B              3.00    10.00000     B ( 1.00)
        N              5.00    14.00000     N ( 1.00)
        C1             4.00    12.00000     C ( 1.00)
        C2             4.00    12.00000     C ( 1.00)
        C3             4.00    12.00000     C ( 1.00)

     Starting magnetic structure 
     atomic species   magnetization
        B            0.000
        N            0.000
        C1           1.000
        C2           0.000
        C3           0.000

     No symmetry found



   Cartesian axes

     site n.     atom                  positions (alat units)
         1           B   tau(   1) = (  -0.0000233   0.0821617   0.5686018  )
         2           B   tau(   2) = (  -0.0713866   0.2062009   0.5686018  )
         3           B   tau(   3) = (  -0.1430783   0.3301031   0.5686018  )
         4           B   tau(   4) = (  -0.2149375   0.4537632   0.5686018  )
         5           B   tau(   5) = (  -0.2861755   0.5775434   0.5686018  )
         6           B   tau(   6) = (  -0.3574872   0.7014372   0.5686018  )
         7           B   tau(   7) = (  -0.4290711   0.8250953   0.5686018  )
         8           B   tau(   8) = (   0.1428779   0.0818580   0.5686018  )
         9           B   tau(   9) = (   0.0712222   0.2053694   0.5686018  )
        10           B   tau(  10) = (   0.0002327   0.3301362   0.5686018  )
        11           B   tau(  11) = (  -0.0725304   0.4539838   0.5686018  )
        12           B   tau(  12) = (  -0.1441451   0.5777657   0.5686018  )
        13           B   tau(  13) = (  -0.2149187   0.7014543   0.5686018  )
        14           B   tau(  14) = (  -0.2861881   0.8249309   0.5686018  )
        15           B   tau(  15) = (   0.2862131   0.0818140   0.5686018  )
        16           B   tau(  16) = (   0.2148456   0.2045690   0.5686018  )
        17           B   tau(  17) = (   0.1436176   0.3272083   0.5686018  )
        18           B   tau(  18) = (   0.0696289   0.4562046   0.5686018  )
        19           B   tau(  19) = (  -0.0025925   0.5788678   0.5686018  )
        20           B   tau(  20) = (  -0.0724144   0.7020070   0.5686018  )
        21           B   tau(  21) = (  -0.1432370   0.8251201   0.5686018  )
        22           B   tau(  22) = (   0.4289841   0.0823577   0.5686018  )
        23           B   tau(  23) = (   0.3574544   0.2061244   0.5686018  )
        24           B   tau(  24) = (   0.2853662   0.3296798   0.5686018  )
        25           C2  tau(  25) = (   0.2152526   0.4530948   0.5686018  )
        26           B   tau(  26) = (   0.1397476   0.5776538   0.5686018  )
        27           B   tau(  27) = (   0.0705912   0.7018778   0.5686018  )
        28           B   tau(  28) = (  -0.0004212   0.8253162   0.5686018  )
        29           B   tau(  29) = (   0.5717760   0.0822445   0.5686018  )
        30           B   tau(  30) = (   0.5003561   0.2060412   0.5686018  )
        31           B   tau(  31) = (   0.4287233   0.3298475   0.5686018  )
        32           B   tau(  32) = (   0.3571899   0.4540822   0.5686018  )
        33           B   tau(  33) = (   0.2884561   0.5780758   0.5686018  )
        34           B   tau(  34) = (   0.2142280   0.7007869   0.5686018  )
        35           B   tau(  35) = (   0.1426011   0.8249144   0.5686018  )
        36           B   tau(  36) = (   0.7147681   0.0821485   0.5686018  )
        37           B   tau(  37) = (   0.6432419   0.2059952   0.5686018  )
        38           B   tau(  38) = (   0.5717591   0.3297149   0.5686018  )
        39           B   tau(  39) = (   0.5002362   0.4534298   0.5686018  )
        40           B   tau(  40) = (   0.4302789   0.5777103   0.5686018  )
        41           B   tau(  41) = (   0.3577740   0.7016916   0.5686018  )
        42           B   tau(  42) = (   0.2857495   0.8247786   0.5686018  )
        43           B   tau(  43) = (   0.8578476   0.0820925   0.5686018  )
        44           B   tau(  44) = (   0.7862593   0.2059749   0.5686018  )
        45           B   tau(  45) = (   0.7146801   0.3297618   0.5686018  )
        46           B   tau(  46) = (   0.6431861   0.4533666   0.5686018  )
        47           B   tau(  47) = (   0.5722715   0.5772817   0.5686018  )
        48           B   tau(  48) = (   0.5005658   0.7013916   0.5686018  )
        49           B   tau(  49) = (   0.4288522   0.8249958   0.5686018  )
        50           N   tau(  50) = (   0.0714331   0.0409759   0.5686018  )
        51           N   tau(  51) = (  -0.0001876   0.1644906   0.5686018  )
        52           N   tau(  52) = (  -0.0713557   0.2888776   0.5686018  )
        53           N   tau(  53) = (  -0.1436341   0.4125195   0.5686018  )
        54           N   tau(  54) = (  -0.2151393   0.5362333   0.5686018  )
        55           N   tau(  55) = (  -0.2862233   0.6600795   0.5686018  )
        56           N   tau(  56) = (  -0.3576342   0.7838513   0.5686018  )
        57           N   tau(  57) = (   0.2145160   0.0409095   0.5686018  )
        58           N   tau(  58) = (   0.1429488   0.1642146   0.5686018  )
        59           N   tau(  59) = (   0.0713660   0.2876061   0.5686018  )
        60           N   tau(  60) = (  -0.0007870   0.4130708   0.5686018  )
        61           N   tau(  61) = (  -0.0731783   0.5365814   0.5686018  )
        62           N   tau(  62) = (  -0.1436888   0.6603299   0.5686018  )
        63           N   tau(  63) = (  -0.2147393   0.7838935   0.5686018  )
        64           N   tau(  64) = (   0.3576142   0.0410192   0.5686018  )
        65           N   tau(  65) = (   0.2863754   0.1641474   0.5686018  )
        66           N   tau(  66) = (   0.2150130   0.2867948   0.5686018  )
        67           C1  tau(  67) = (   0.1457790   0.4134614   0.5686018  )
        68           N   tau(  68) = (   0.0679304   0.5381514   0.5686018  )
        69           N   tau(  69) = (  -0.0012643   0.6611402   0.5686018  )
        70           N   tau(  70) = (  -0.0719434   0.7842561   0.5686018  )
        71           N   tau(  71) = (   0.5003317   0.0412613   0.5686018  )
        72           N   tau(  72) = (   0.4288916   0.1649165   0.5686018  )
        73           N   tau(  73) = (   0.3571532   0.2888803   0.5686018  )
        74           N   tau(  74) = (   0.2850449   0.4128002   0.5686018  )
        75           C3  tau(  75) = (   0.2148394   0.5330775   0.5686018  )
        76           N   tau(  76) = (   0.1418947   0.6602027   0.5686018  )
        77           N   tau(  77) = (   0.0709485   0.7841876   0.5686018  )
        78           N   tau(  78) = (   0.6432797   0.0409898   0.5686018  )
        79           N   tau(  79) = (   0.5717930   0.1647678   0.5686018  )
        80           N   tau(  80) = (   0.5002145   0.2885720   0.5686018  )
        81           N   tau(  81) = (   0.4284168   0.4123125   0.5686018  )
        82           N   tau(  82) = (   0.3591528   0.5364523   0.5686018  )
        83           N   tau(  83) = (   0.2866267   0.6604486   0.5686018  )
        84           N   tau(  84) = (   0.2141647   0.7834136   0.5686018  )
        85           N   tau(  85) = (   0.7862879   0.0408973   0.5686018  )
        86           N   tau(  86) = (   0.7147525   0.1647085   0.5686018  )
        87           N   tau(  87) = (   0.6432213   0.2884853   0.5686018  )
        88           N   tau(  88) = (   0.5716419   0.4121672   0.5686018  )
        89           N   tau(  89) = (   0.5010498   0.5359745   0.5686018  )
        90           N   tau(  90) = (   0.4292784   0.6601520   0.5686018  )
        91           N   tau(  91) = (   0.3574711   0.7839737   0.5686018  )
        92           N   tau(  92) = (   0.9292454   0.0408710   0.5686018  )
        93           N   tau(  93) = (   0.8577438   0.1646625   0.5686018  )
        94           N   tau(  94) = (   0.7861596   0.2884650   0.5686018  )
        95           N   tau(  95) = (   0.7144506   0.4121259   0.5686018  )
        96           N   tau(  96) = (   0.6433014   0.5358440   0.5686018  )
        97           N   tau(  97) = (   0.5718474   0.6598256   0.5686018  )
        98           N   tau(  98) = (   0.5002484   0.7837058   0.5686018  )

     number of k points=     1
                       cart. coord. in units 2pi/alat
        k(    1) = (   0.0000000   0.0000000   0.0000000), wk =   1.0000000

     Dense  grid:   218618 G-vectors     FFT dimensions: (  96,  96, 108)

     Occupations read from input 

      Spin-up

        1.0000   1.0000   1.0000   1.0000   1.0000   1.0000   1.0000   1.0000
        1.0000   1.0000   1.0000   1.0000   1.0000   1.0000   1.0000   1.0000
        1.0000   1.0000   1.0000   1.0000   1.0000   1.0000   1.0000   1.0000
        1.0000   1.0000   1.0000   1.0000   1.0000   1.0000   1.0000   1.0000
        1.0000   1.0000   1.0000   1.0000   1.0000   1.0000   1.0000   1.0000
        1.0000   1.0000   1.0000   1.0000   1.0000   1.0000   1.0000   1.0000
        1.0000   1.0000   1.0000   1.0000   1.0000   1.0000   1.0000   1.0000
        1.0000   1.0000   1.0000   1.0000   1.0000   1.0000   1.0000   1.0000
        1.0000   1.0000   1.0000   1.0000   1.0000   1.0000   1.0000   1.0000
        1.0000   1.0000   1.0000   1.0000   1.0000   1.0000   1.0000   1.0000
        1.0000   1.0000   1.0000   1.0000   1.0000   1.0000   1.0000   1.0000
        1.0000   1.0000   1.0000   1.0000   1.0000   1.0000   1.0000   1.0000
        1.0000   1.0000   1.0000   1.0000   1.0000   1.0000   1.0000   1.0000
        1.0000   1.0000   1.0000   1.0000   1.0000   1.0000   1.0000   1.0000
        1.0000   1.0000   1.0000   1.0000   1.0000   1.0000   1.0000   1.0000
        1.0000   1.0000   1.0000   1.0000   1.0000   1.0000   1.0000   1.0000
        1.0000   1.0000   1.0000   1.0000   1.0000   1.0000   1.0000   1.0000
        1.0000   1.0000   1.0000   1.0000   1.0000   1.0000   1.0000   1.0000
        1.0000   1.0000   1.0000   1.0000   1.0000   1.0000   1.0000   1.0000
        1.0000   1.0000   1.0000   1.0000   1.0000   1.0000   1.0000   1.0000
        1.0000   1.0000   1.0000   1.0000   1.0000   1.0000   1.0000   1.0000
        1.0000   1.0000   1.0000   1.0000   1.0000   1.0000   1.0000   1.0000
        1.0000   1.0000   1.0000   1.0000   1.0000   1.0000   1.0000   1.0000
        1.0000   1.0000   1.0000   1.0000   1.0000   1.0000   1.0000   1.0000
        1.0000   1.0000   1.0000   1.0000   0.0000   0.0000   0.0000   0.0000
        0.0000   0.0000   0.0000   0.0000   0.0000   0.0000   0.0000   0.0000
        0.0000   0.0000   0.0000   0.0000   0.0000   0.0000   0.0000   0.0000
        0.0000   0.0000   0.0000   0.0000   0.0000   0.0000   0.0000   0.0000
        0.0000   0.0000   0.0000   0.0000   0.0000   0.0000   0.0000   0.0000
        0.0000   0.0000   0.0000   0.0000   0.0000   0.0000   0.0000   0.0000
        0.0000   0.0000   0.0000   0.0000   0.0000

      Spin-down

        1.0000   1.0000   1.0000   1.0000   1.0000   1.0000   1.0000   1.0000
        1.0000   1.0000   1.0000   1.0000   1.0000   1.0000   1.0000   1.0000
        1.0000   1.0000   1.0000   1.0000   1.0000   1.0000   1.0000   1.0000
        1.0000   1.0000   1.0000   1.0000   1.0000   1.0000   1.0000   1.0000
        1.0000   1.0000   1.0000   1.0000   1.0000   1.0000   1.0000   1.0000
        1.0000   1.0000   1.0000   1.0000   1.0000   1.0000   1.0000   1.0000
        1.0000   1.0000   1.0000   1.0000   1.0000   1.0000   1.0000   1.0000
        1.0000   1.0000   1.0000   1.0000   1.0000   1.0000   1.0000   1.0000
        1.0000   1.0000   1.0000   1.0000   1.0000   1.0000   1.0000   1.0000
        1.0000   1.0000   1.0000   1.0000   1.0000   1.0000   1.0000   1.0000
        1.0000   1.0000   1.0000   1.0000   1.0000   1.0000   1.0000   1.0000
        1.0000   1.0000   1.0000   1.0000   1.0000   1.0000   1.0000   1.0000
        1.0000   1.0000   1.0000   1.0000   1.0000   1.0000   1.0000   1.0000
        1.0000   1.0000   1.0000   1.0000   1.0000   1.0000   1.0000   1.0000
        1.0000   1.0000   1.0000   1.0000   1.0000   1.0000   1.0000   1.0000
        1.0000   1.0000   1.0000   1.0000   1.0000   1.0000   1.0000   1.0000
        1.0000   1.0000   1.0000   1.0000   1.0000   1.0000   1.0000   1.0000
        1.0000   1.0000   1.0000   1.0000   1.0000   1.0000   1.0000   1.0000
        1.0000   1.0000   1.0000   1.0000   1.0000   1.0000   1.0000   1.0000
        1.0000   1.0000   1.0000   1.0000   1.0000   1.0000   1.0000   1.0000
        1.0000   1.0000   1.0000   1.0000   1.0000   1.0000   1.0000   1.0000
        1.0000   1.0000   1.0000   1.0000   1.0000   1.0000   1.0000   1.0000
        1.0000   1.0000   1.0000   1.0000   1.0000   1.0000   1.0000   1.0000
        1.0000   1.0000   1.0000   1.0000   1.0000   1.0000   1.0000   1.0000
        1.0000   1.0000   1.0000   0.0000   0.0000   0.0000   0.0000   0.0000
        0.0000   0.0000   0.0000   0.0000   0.0000   0.0000   0.0000   0.0000
        0.0000   0.0000   0.0000   0.0000   0.0000   0.0000   0.0000   0.0000
        0.0000   0.0000   0.0000   0.0000   0.0000   0.0000   0.0000   0.0000
        0.0000   0.0000   0.0000   0.0000   0.0000   0.0000   0.0000   0.0000
        0.0000   0.0000   0.0000   0.0000   0.0000   0.0000   0.0000   0.0000
        0.0000   0.0000   0.0000   0.0000   0.0000

     Estimated max dynamical RAM per process >     110.13 MB

     Estimated total dynamical RAM >       6.88 GB
     Generating pointlists ...
     new r_m :   0.0336 (alat units)  1.1164 (a.u.) for type    1
     new r_m :   0.0332 (alat units)  1.1048 (a.u.) for type    2
     new r_m :   0.0330 (alat units)  1.0965 (a.u.) for type    3
     new r_m :   0.0330 (alat units)  1.0965 (a.u.) for type    4
     new r_m :   0.0330 (alat units)  1.0965 (a.u.) for type    5

     Check: negative core charge=   -0.000324

     Initial potential from superposition of free atoms

     starting charge  390.98597, renormalised to  391.00000

     negative rho (up, down):  1.668E+00 2.034E-03
     Starting wfcs are  392 randomized atomic wfcs

     total cpu time spent up to now is        3.8 secs

     Self-consistent Calculation

     iteration #  1     ecut=    20.00 Ry     beta= 0.70
     CG style diagonalization
     ethr =  1.00E-02,  avg # of iterations =  3.1

     negative rho (up, down):  4.556E+00 4.640E-03

     total cpu time spent up to now is       16.3 secs

     total energy              =   -1927.60236656 Ry
     Harris-Foulkes estimate   =   -1934.32164081 Ry
     estimated scf accuracy    <      12.67496702 Ry

     total magnetization       =     1.00 Bohr mag/cell
     absolute magnetization    =     1.59 Bohr mag/cell

     iteration #  2     ecut=    20.00 Ry     beta= 0.70
     CG style diagonalization
     ethr =  3.24E-03,  avg # of iterations =  4.1

     negative rho (up, down):  5.281E+00 3.829E-03

     total cpu time spent up to now is       28.1 secs

     total energy              =   -1929.98086252 Ry
     Harris-Foulkes estimate   =   -1932.38559845 Ry
     estimated scf accuracy    <       4.50276223 Ry

     total magnetization       =     1.00 Bohr mag/cell
     absolute magnetization    =     1.41 Bohr mag/cell

     iteration #  3     ecut=    20.00 Ry     beta= 0.70
     CG style diagonalization
     ethr =  1.15E-03,  avg # of iterations =  3.9

     negative rho (up, down):  5.894E+00 3.858E-03

     total cpu time spent up to now is       39.0 secs

     total energy              =   -1930.96628827 Ry
     Harris-Foulkes estimate   =   -1931.14643711 Ry
     estimated scf accuracy    <       0.37402445 Ry

     total magnetization       =     1.00 Bohr mag/cell
     absolute magnetization    =     1.28 Bohr mag/cell

     iteration #  4     ecut=    20.00 Ry     beta= 0.70
     CG style diagonalization
     ethr =  9.57E-05,  avg # of iterations =  8.0

     negative rho (up, down):  6.097E+00 3.729E-03

     total cpu time spent up to now is       61.5 secs

     total energy              =   -1931.03993257 Ry
     Harris-Foulkes estimate   =   -1931.20142865 Ry
     estimated scf accuracy    <       0.42376048 Ry

     total magnetization       =     1.00 Bohr mag/cell
     absolute magnetization    =     1.25 Bohr mag/cell

     iteration #  5     ecut=    20.00 Ry     beta= 0.70
     CG style diagonalization
     c_bands:  3 eigenvalues not converged
     ethr =  9.57E-05,  avg # of iterations =  3.4

     negative rho (up, down):  6.197E+00 3.748E-03

     total cpu time spent up to now is       70.8 secs

     total energy              =   -1931.10611842 Ry
     Harris-Foulkes estimate   =   -1931.10827033 Ry
     estimated scf accuracy    <       0.00835775 Ry

     total magnetization       =     1.00 Bohr mag/cell
     absolute magnetization    =     1.28 Bohr mag/cell

     iteration #  6     ecut=    20.00 Ry     beta= 0.70
     CG style diagonalization
     c_bands:  3 eigenvalues not converged
     c_bands:  1 eigenvalues not converged
     ethr =  2.14E-06,  avg # of iterations =  9.0

     negative rho (up, down):  6.265E+00 3.786E-03

     total cpu time spent up to now is       96.8 secs

     total energy              =   -1931.11075562 Ry
     Harris-Foulkes estimate   =   -1931.11259629 Ry
     estimated scf accuracy    <       0.00689783 Ry

     total magnetization       =     1.00 Bohr mag/cell
     absolute magnetization    =     1.28 Bohr mag/cell

     iteration #  7     ecut=    20.00 Ry     beta= 0.70
     CG style diagonalization
     c_bands:  1 eigenvalues not converged
     ethr =  1.76E-06,  avg # of iterations =  3.5

     negative rho (up, down):  6.272E+00 3.792E-03

     total cpu time spent up to now is      106.3 secs

     total energy              =   -1931.11190479 Ry
     Harris-Foulkes estimate   =   -1931.11203709 Ry
     estimated scf accuracy    <       0.00054465 Ry

     total magnetization       =     1.00 Bohr mag/cell
     absolute magnetization    =     1.29 Bohr mag/cell

     iteration #  8     ecut=    20.00 Ry     beta= 0.70
     CG style diagonalization
     ethr =  1.39E-07,  avg # of iterations =  3.5

     negative rho (up, down):  6.273E+00 3.845E-03

     total cpu time spent up to now is      115.8 secs

     total energy              =   -1931.11204714 Ry
     Harris-Foulkes estimate   =   -1931.11203222 Ry
     estimated scf accuracy    <       0.00010751 Ry

     total magnetization       =     1.00 Bohr mag/cell
     absolute magnetization    =     1.29 Bohr mag/cell

     iteration #  9     ecut=    20.00 Ry     beta= 0.70
     CG style diagonalization
     ethr =  2.75E-08,  avg # of iterations =  3.9

     negative rho (up, down):  6.273E+00 3.859E-03

     total cpu time spent up to now is      126.7 secs

     total energy              =   -1931.11211188 Ry
     Harris-Foulkes estimate   =   -1931.11209533 Ry
     estimated scf accuracy    <       0.00003347 Ry

     total magnetization       =     1.00 Bohr mag/cell
     absolute magnetization    =     1.29 Bohr mag/cell

     iteration # 10     ecut=    20.00 Ry     beta= 0.70
     CG style diagonalization
     ethr =  8.56E-09,  avg # of iterations =  3.4

     negative rho (up, down):  6.273E+00 3.883E-03

     total cpu time spent up to now is      136.0 secs

     total energy              =   -1931.11212417 Ry
     Harris-Foulkes estimate   =   -1931.11212614 Ry
     estimated scf accuracy    <       0.00001230 Ry

     total magnetization       =     1.00 Bohr mag/cell
     absolute magnetization    =     1.29 Bohr mag/cell

     iteration # 11     ecut=    20.00 Ry     beta= 0.70
     CG style diagonalization
     ethr =  3.15E-09,  avg # of iterations =  3.3

     negative rho (up, down):  6.273E+00 3.886E-03

     total cpu time spent up to now is      144.8 secs

     total energy              =   -1931.11212609 Ry
     Harris-Foulkes estimate   =   -1931.11212648 Ry
     estimated scf accuracy    <       0.00000200 Ry

     total magnetization       =     1.00 Bohr mag/cell
     absolute magnetization    =     1.29 Bohr mag/cell

     iteration # 12     ecut=    20.00 Ry     beta= 0.70
     CG style diagonalization
     ethr =  5.13E-10,  avg # of iterations =  4.0

     negative rho (up, down):  6.273E+00 3.882E-03
 
     Magnetic moment per site:
     atom:    1    charge:    0.8613    magn:   -0.0000    constr:    0.0000
     atom:    2    charge:    0.8483    magn:    0.0003    constr:    0.0000
     atom:    3    charge:    0.8528    magn:    0.0008    constr:    0.0000
     atom:    4    charge:    0.8616    magn:   -0.0000    constr:    0.0000
     atom:    5    charge:    0.8582    magn:    0.0001    constr:    0.0000
     atom:    6    charge:    0.8523    magn:    0.0001    constr:    0.0000
     atom:    7    charge:    0.8626    magn:   -0.0000    constr:    0.0000
     atom:    8    charge:    0.8523    magn:    0.0001    constr:    0.0000
     atom:    9    charge:    0.8539    magn:   -0.0003    constr:    0.0000
     atom:   10    charge:    0.8457    magn:    0.0032    constr:    0.0000
     atom:   11    charge:    0.8486    magn:    0.0006    constr:    0.0000
     atom:   12    charge:    0.8550    magn:    0.0001    constr:    0.0000
     atom:   13    charge:    0.8553    magn:   -0.0000    constr:    0.0000
     atom:   14    charge:    0.8523    magn:    0.0001    constr:    0.0000
     atom:   15    charge:    0.8560    magn:   -0.0001    constr:    0.0000
     atom:   16    charge:    0.8543    magn:    0.0001    constr:    0.0000
     atom:   17    charge:    0.8624    magn:    0.0023    constr:    0.0000
     atom:   18    charge:    0.8580    magn:    0.0073    constr:    0.0000
     atom:   19    charge:    0.8619    magn:   -0.0004    constr:    0.0000
     atom:   20    charge:    0.8550    magn:    0.0001    constr:    0.0000
     atom:   21    charge:    0.8582    magn:    0.0001    constr:    0.0000
     atom:   22    charge:    0.8537    magn:    0.0001    constr:    0.0000
     atom:   23    charge:    0.8470    magn:    0.0003    constr:    0.0000
     atom:   24    charge:    0.8528    magn:   -0.0007    constr:    0.0000
     atom:   25    charge:    1.6084    magn:   -0.0241    constr:    0.0000
     atom:   26    charge:    0.8580    magn:    0.0074    constr:    0.0000
     atom:   27    charge:    0.8486    magn:    0.0006    constr:    0.0000
     atom:   28    charge:    0.8616    magn:   -0.0000    constr:    0.0000
     atom:   29    charge:    0.8541    magn:    0.0001    constr:    0.0000
     atom:   30    charge:    0.8539    magn:    0.0000    constr:    0.0000
     atom:   31    charge:    0.8541    magn:   -0.0003    constr:    0.0000
     atom:   32    charge:    0.8528    magn:   -0.0007    constr:    0.0000
     atom:   33    charge:    0.8624    magn:    0.0024    constr:    0.0000
     atom:   34    charge:    0.8457    magn:    0.0032    constr:    0.0000
     atom:   35    charge:    0.8528    magn:    0.0009    constr:    0.0000
     atom:   36    charge:    0.8503    magn:    0.0004    constr:    0.0000
     atom:   37    charge:    0.8486    magn:   -0.0000    constr:    0.0000
     atom:   38    charge:    0.8539    magn:    0.0000    constr:    0.0000
     atom:   39    charge:    0.8470    magn:    0.0003    constr:    0.0000
     atom:   40    charge:    0.8543    magn:    0.0001    constr:    0.0000
     atom:   41    charge:    0.8539    magn:   -0.0003    constr:    0.0000
     atom:   42    charge:    0.8483    magn:    0.0003    constr:    0.0000
     atom:   43    charge:    0.8492    magn:   -0.0000    constr:    0.0000
     atom:   44    charge:    0.8503    magn:    0.0004    constr:    0.0000
     atom:   45    charge:    0.8541    magn:    0.0001    constr:    0.0000
     atom:   46    charge:    0.8537    magn:    0.0001    constr:    0.0000
     atom:   47    charge:    0.8560    magn:   -0.0001    constr:    0.0000
     atom:   48    charge:    0.8523    magn:    0.0001    constr:    0.0000
     atom:   49    charge:    0.8613    magn:   -0.0000    constr:    0.0000
     atom:   50    charge:    2.7187    magn:    0.0005    constr:    0.0000
     atom:   51    charge:    2.7038    magn:   -0.0002    constr:    0.0000
     atom:   52    charge:    2.6960    magn:    0.0031    constr:    0.0000
     atom:   53    charge:    2.7060    magn:    0.0000    constr:    0.0000
     atom:   54    charge:    2.7118    magn:    0.0001    constr:    0.0000
     atom:   55    charge:    2.7014    magn:   -0.0000    constr:    0.0000
     atom:   56    charge:    2.7027    magn:   -0.0001    constr:    0.0000
     atom:   57    charge:    2.7095    magn:    0.0003    constr:    0.0000
     atom:   58    charge:    2.7016    magn:    0.0042    constr:    0.0000
     atom:   59    charge:    2.6993    magn:    0.0064    constr:    0.0000
     atom:   60    charge:    2.6929    magn:    0.0127    constr:    0.0000
     atom:   61    charge:    2.7182    magn:    0.0014    constr:    0.0000
     atom:   62    charge:    2.7018    magn:   -0.0001    constr:    0.0000
     atom:   63    charge:    2.7014    magn:   -0.0000    constr:    0.0000
     atom:   64    charge:    2.7130    magn:   -0.0000    constr:    0.0000
     atom:   65    charge:    2.7186    magn:    0.0003    constr:    0.0000
     atom:   66    charge:    2.7131    magn:    0.0162    constr:    0.0000
     atom:   67    charge:    1.6199    magn:    0.1162    constr:    0.0000
     atom:   68    charge:    2.7349    magn:   -0.0022    constr:    0.0000
     atom:   69    charge:    2.7182    magn:    0.0013    constr:    0.0000
     atom:   70    charge:    2.7119    magn:    0.0001    constr:    0.0000
     atom:   71    charge:    2.7224    magn:   -0.0000    constr:    0.0000
     atom:   72    charge:    2.6988    magn:    0.0002    constr:    0.0000
     atom:   73    charge:    2.6955    magn:    0.0014    constr:    0.0000
     atom:   74    charge:    2.6952    magn:   -0.0024    constr:    0.0000
     atom:   75    charge:    1.6200    magn:    0.1158    constr:    0.0000
     atom:   76    charge:    2.6929    magn:    0.0126    constr:    0.0000
     atom:   77    charge:    2.7060    magn:   -0.0000    constr:    0.0000
     atom:   78    charge:    2.7097    magn:    0.0000    constr:    0.0000
     atom:   79    charge:    2.6980    magn:   -0.0000    constr:    0.0000
     atom:   80    charge:    2.7051    magn:   -0.0001    constr:    0.0000
     atom:   81    charge:    2.6955    magn:    0.0014    constr:    0.0000
     atom:   82    charge:    2.7131    magn:    0.0162    constr:    0.0000
     atom:   83    charge:    2.6993    magn:    0.0063    constr:    0.0000
     atom:   84    charge:    2.6960    magn:    0.0031    constr:    0.0000
     atom:   85    charge:    2.7054    magn:    0.0004    constr:    0.0000
     atom:   86    charge:    2.7140    magn:   -0.0001    constr:    0.0000
     atom:   87    charge:    2.6980    magn:   -0.0000    constr:    0.0000
     atom:   88    charge:    2.6988    magn:    0.0002    constr:    0.0000
     atom:   89    charge:    2.7186    magn:    0.0003    constr:    0.0000
     atom:   90    charge:    2.7016    magn:    0.0042    constr:    0.0000
     atom:   91    charge:    2.7038    magn:   -0.0002    constr:    0.0000
     atom:   92    charge:    2.7196    magn:   -0.0001    constr:    0.0000
     atom:   93    charge:    2.7053    magn:    0.0004    constr:    0.0000
     atom:   94    charge:    2.7096    magn:    0.0000    constr:    0.0000
     atom:   95    charge:    2.7224    magn:   -0.0000    constr:    0.0000
     atom:   96    charge:    2.7130    magn:   -0.0000    constr:    0.0000
     atom:   97    charge:    2.7095    magn:    0.0003    constr:    0.0000
     atom:   98    charge:    2.7187    magn:    0.0005    constr:    0.0000

     total cpu time spent up to now is      156.0 secs

     End of self-consistent calculation

 ------ SPIN UP ------------


          k = 0.0000 0.0000 0.0000 ( 27344 PWs)   bands (ev):

   -22.5059 -22.3090 -22.1293 -22.1220 -22.1018 -22.0505 -21.9988 -21.6097
   -21.4209 -21.4044 -21.4026 -21.3222 -21.3098 -21.1989 -21.0810 -21.0731
   -21.0495 -20.9222 -20.9070 -20.4106 -20.2385 -20.2358 -20.2332 -20.2212
   -20.2187 -20.2123 -20.2114 -20.1796 -20.1654 -20.0228 -20.0181 -19.9052
   -19.8592 -19.8587 -19.8299 -19.6745 -19.6619 -19.4677 -19.4593 -19.4487
   -19.4369 -19.3771 -19.3586 -19.3082 -19.2872 -19.2833 -19.2698 -17.6748
   -15.5589 -13.4249 -13.0154 -13.0076 -12.9968 -12.9690 -12.9617 -12.9079
   -12.8305 -12.8044 -12.7951 -12.7457 -12.6827 -12.4671 -12.3929 -12.3834
   -12.3596 -12.2998 -12.2715 -11.8698 -11.7248 -11.7139 -11.7032 -11.6959
   -11.6856 -11.6749 -11.6711 -11.6306 -11.6242 -11.4337 -11.3516 -11.1787
   -11.0026 -10.9920 -10.9636 -10.9547 -10.7937 -10.3935 -10.3718 -10.3335
   -10.2689 -10.2093 -10.1461  -9.7331  -9.6617  -9.6380  -9.6154  -9.6101
    -9.5581  -9.5569  -9.3825  -9.2805  -9.2701  -9.2554  -9.2359  -9.2281
    -9.2263  -9.2042  -9.1826  -9.1557  -9.1539  -9.1405  -9.1366  -9.1005
    -9.0832  -9.0490  -9.0418  -9.0241  -9.0071  -8.9946  -8.9851  -8.9268
    -8.8163  -8.8112  -8.5543  -8.5519  -8.5510  -8.4902  -8.4368  -8.2094
    -8.1169  -8.0287  -8.0132  -8.0115  -7.9359  -7.9350  -7.8781  -7.8273
    -7.8243  -7.8001  -7.7830  -7.7737  -7.7464  -7.7427  -7.6943  -7.6275
    -7.6198  -7.5479  -7.5330  -7.5284  -7.5053  -7.4399  -7.4101  -7.3638
    -7.3505  -7.3228  -7.2698  -7.1357  -6.9646  -6.8300  -6.4522  -6.4336
    -6.4235  -6.3861  -6.3683  -6.2136  -6.2101  -6.2084  -6.2022  -6.1947
    -6.1887  -6.1876  -6.1628  -6.1466  -6.0858  -6.0443  -5.9700  -5.9605
    -5.6530  -5.5830  -5.5773  -5.5605  -5.4935  -5.3883  -5.3842  -5.3777
    -4.9068  -4.8806  -4.8635  -4.8586  -4.7953  -4.7541  -4.6321  -4.5940
    -4.5937  -4.5866  -4.4547  -3.6668  -1.2250  -0.8257  -0.6013  -0.5861
    -0.5788  -0.5763  -0.5675  -0.5667  -0.5294  -0.2302  -0.1939  -0.1885
    -0.1878  -0.1807  -0.1795  -0.0165   0.0449   0.0546   0.0552   0.0557
     0.0572   0.0740   0.4687   0.4855   0.4933   0.4964   0.5193   0.5249
     0.5936   0.6780   0.6985   0.7131   0.7159   0.7169   0.7219   0.7283
     0.7319   0.7346   0.7402   0.7769   0.7997   0.9310   1.0076   1.0114
     1.0301   1.0414   1.0651   1.0818   1.0860

 ------ SPIN DOWN ----------


          k = 0.0000 0.0000 0.0000 ( 27344 PWs)   bands (ev):

   -22.5004 -22.3058 -22.1270 -22.1204 -22.1008 -22.0421 -21.9916 -21.6063
   -21.4164 -21.3994 -21.3974 -21.3175 -21.3061 -21.1975 -21.0736 -21.0663
   -21.0460 -20.9095 -20.8981 -20.4025 -20.2344 -20.2340 -20.2307 -20.2190
   -20.2156 -20.2079 -20.2015 -20.1680 -20.1607 -20.0174 -20.0139 -19.9007
   -19.8546 -19.8531 -19.8249 -19.6641 -19.6541 -19.4607 -19.4553 -19.4429
   -19.4329 -19.3723 -19.3502 -19.3060 -19.2834 -19.2788 -19.2644 -17.5126
   -15.2549 -13.3767 -13.0133 -13.0037 -12.9941 -12.9662 -12.9600 -12.9043
   -12.8285 -12.8005 -12.7916 -12.7306 -12.6748 -12.4621 -12.3911 -12.3805
   -12.3549 -12.2877 -12.2623 -11.8583 -11.7187 -11.7099 -11.7014 -11.6941
   -11.6836 -11.6707 -11.6694 -11.6209 -11.6133 -11.4010 -11.3265 -11.1733
   -11.0007 -10.9900 -10.9547 -10.9498 -10.7812 -10.3888 -10.3665 -10.3278
   -10.2585 -10.1943 -10.1301  -9.7305  -9.6531  -9.6337  -9.6110  -9.6076
    -9.5535  -9.5421  -9.3794  -9.2768  -9.2656  -9.2531  -9.2331  -9.2248
    -9.2213  -9.2008  -9.1801  -9.1539  -9.1504  -9.1366  -9.1327  -9.0810
    -9.0691  -9.0442  -9.0373  -9.0217  -8.9899  -8.9822  -8.9626  -8.8678
    -8.8053  -8.7795  -8.5529  -8.5502  -8.5487  -8.4687  -8.4279  -8.1933
    -8.1024  -8.0184  -8.0040  -8.0003  -7.9152  -7.9013  -7.8712  -7.8251
    -7.8211  -7.7983  -7.7816  -7.7728  -7.7449  -7.7406  -7.6912  -7.6212
    -7.6111  -7.5311  -7.5180  -7.5140  -7.4957  -7.3795  -7.3675  -7.3483
    -7.3482  -7.3215  -7.2448  -7.1073  -6.9411  -6.7990  -6.4487  -6.4316
    -6.4203  -6.3731  -6.3503  -6.2074  -6.2043  -6.2008  -6.1907  -6.1906
    -6.1794  -6.1709  -6.1360  -6.1329  -6.0658  -5.9810  -5.9421  -5.9242
    -5.6402  -5.5732  -5.5646  -5.5521  -5.4219  -5.3351  -5.3194  -5.2963
    -4.8919  -4.8706  -4.8503  -4.8481  -4.7562  -4.7397  -4.6267  -4.5863
    -4.5826  -4.5783  -4.2863  -3.0282  -1.2233  -0.8252  -0.6019  -0.5861
    -0.5786  -0.5759  -0.5671  -0.5645  -0.5210  -0.2191  -0.1939  -0.1883
    -0.1876  -0.1796  -0.1796   0.0375   0.0445   0.0545   0.0555   0.0561
     0.0568   0.0779   0.4713   0.4921   0.5003   0.5080   0.5369   0.5409
     0.5990   0.6841   0.7081   0.7137   0.7160   0.7173   0.7228   0.7339
     0.7363   0.7387   0.7577   0.8019   0.8179   0.9450   1.0173   1.0378
     1.0466   1.0797   1.0811   1.0818   1.0854

     highest occupied, lowest unoccupied level (ev):    -3.6668   -3.0282

!    total energy              =   -1931.11212699 Ry
     Harris-Foulkes estimate   =   -1931.11212711 Ry
     estimated scf accuracy    <       0.00000042 Ry

     total magnetization       =     1.00 Bohr mag/cell
     absolute magnetization    =     1.29 Bohr mag/cell

     convergence has been achieved in  12 iterations

     Using ACE for calculation of exact exchange

     EXX grid:   218618 G-vectors     FFT dimensions: (  96,  96, 108)

     negative rho (up, down):  6.273E+00 3.882E-03

     EXX: now go back to refine exchange calculation

     total cpu time spent up to now is     3296.3 secs

     Self-consistent Calculation

     iteration #  1     ecut=    20.00 Ry     beta= 0.70
     CG style diagonalization
     c_bands:  2 eigenvalues not converged
     c_bands:  3 eigenvalues not converged
     ethr =  5.13E-10,  avg # of iterations = 24.6

     negative rho (up, down):  6.404E+00 4.107E-03

     total cpu time spent up to now is     3388.4 secs

     total energy              =   -1715.33098267 Ry
     Harris-Foulkes estimate   =   -1715.38962716 Ry
     estimated scf accuracy    <       0.08738857 Ry

     total magnetization       =     1.00 Bohr mag/cell
     absolute magnetization    =     1.40 Bohr mag/cell

     iteration #  2     ecut=    20.00 Ry     beta= 0.70
     CG style diagonalization
     ethr =  2.24E-05,  avg # of iterations =  4.8

     negative rho (up, down):  6.364E+00 4.190E-03

     total cpu time spent up to now is     3404.2 secs

     total energy              =   -1706.27473980 Ry
     Harris-Foulkes estimate   =   -1706.35653447 Ry
     estimated scf accuracy    <       0.21042254 Ry

     total magnetization       =     1.00 Bohr mag/cell
     absolute magnetization    =     1.39 Bohr mag/cell

     iteration #  3     ecut=    20.00 Ry     beta= 0.70
     CG style diagonalization
     ethr =  2.24E-05,  avg # of iterations =  3.7

     negative rho (up, down):  6.248E+00 4.088E-03

     total cpu time spent up to now is     3415.7 secs

     total energy              =   -1706.25383174 Ry
     Harris-Foulkes estimate   =   -1706.28864399 Ry
     estimated scf accuracy    <       0.04405579 Ry

     total magnetization       =     1.00 Bohr mag/cell
     absolute magnetization    =     1.40 Bohr mag/cell

     iteration #  4     ecut=    20.00 Ry     beta= 0.70
     CG style diagonalization
     ethr =  1.13E-05,  avg # of iterations =  3.8

     negative rho (up, down):  6.256E+00 4.097E-03

     total cpu time spent up to now is     3427.7 secs

     total energy              =   -1706.27010757 Ry
     Harris-Foulkes estimate   =   -1706.27573340 Ry
     estimated scf accuracy    <       0.01419206 Ry

     total magnetization       =     1.00 Bohr mag/cell
     absolute magnetization    =     1.40 Bohr mag/cell

     iteration #  5     ecut=    20.00 Ry     beta= 0.70
     CG style diagonalization
     ethr =  3.63E-06,  avg # of iterations =  3.1

     negative rho (up, down):  6.264E+00 4.099E-03

     total cpu time spent up to now is     3437.1 secs

     total energy              =   -1706.26927226 Ry
     Harris-Foulkes estimate   =   -1706.27115120 Ry
     estimated scf accuracy    <       0.00342847 Ry

     total magnetization       =     1.00 Bohr mag/cell
     absolute magnetization    =     1.40 Bohr mag/cell

     iteration #  6     ecut=    20.00 Ry     beta= 0.70
     CG style diagonalization
     c_bands:  1 eigenvalues not converged
     ethr =  8.77E-07,  avg # of iterations =  3.8

     negative rho (up, down):  6.265E+00 4.098E-03

     total cpu time spent up to now is     3449.1 secs

     total energy              =   -1706.27018669 Ry
     Harris-Foulkes estimate   =   -1706.27018440 Ry
     estimated scf accuracy    <       0.00002198 Ry

     total magnetization       =     1.00 Bohr mag/cell
     absolute magnetization    =     1.40 Bohr mag/cell

     iteration #  7     ecut=    20.00 Ry     beta= 0.70
     CG style diagonalization
     ethr =  5.62E-09,  avg # of iterations =  3.6

     negative rho (up, down):  6.265E+00 4.106E-03

     total cpu time spent up to now is     3460.3 secs

     total energy              =   -1706.27018835 Ry
     Harris-Foulkes estimate   =   -1706.27019245 Ry
     estimated scf accuracy    <       0.00000507 Ry

     total magnetization       =     1.00 Bohr mag/cell
     absolute magnetization    =     1.40 Bohr mag/cell

     iteration #  8     ecut=    20.00 Ry     beta= 0.70
     CG style diagonalization
     ethr =  1.30E-09,  avg # of iterations =  3.5

     negative rho (up, down):  6.264E+00 4.116E-03
 
     Magnetic moment per site:
     atom:    1    charge:    0.8386    magn:   -0.0000    constr:    0.0000
     atom:    2    charge:    0.8252    magn:    0.0002    constr:    0.0000
     atom:    3    charge:    0.8298    magn:    0.0006    constr:    0.0000
     atom:    4    charge:    0.8389    magn:   -0.0001    constr:    0.0000
     atom:    5    charge:    0.8354    magn:    0.0000    constr:    0.0000
     atom:    6    charge:    0.8294    magn:    0.0000    constr:    0.0000
     atom:    7    charge:    0.8399    magn:   -0.0000    constr:    0.0000
     atom:    8    charge:    0.8295    magn:    0.0000    constr:    0.0000
     atom:    9    charge:    0.8309    magn:   -0.0004    constr:    0.0000
     atom:   10    charge:    0.8223    magn:    0.0026    constr:    0.0000
     atom:   11    charge:    0.8256    magn:    0.0003    constr:    0.0000
     atom:   12    charge:    0.8324    magn:    0.0001    constr:    0.0000
     atom:   13    charge:    0.8322    magn:    0.0000    constr:    0.0000
     atom:   14    charge:    0.8294    magn:    0.0000    constr:    0.0000
     atom:   15    charge:    0.8333    magn:   -0.0001    constr:    0.0000
     atom:   16    charge:    0.8316    magn:   -0.0001    constr:    0.0000
     atom:   17    charge:    0.8411    magn:    0.0019    constr:    0.0000
     atom:   18    charge:    0.8363    magn:    0.0067    constr:    0.0000
     atom:   19    charge:    0.8395    magn:   -0.0005    constr:    0.0000
     atom:   20    charge:    0.8324    magn:    0.0001    constr:    0.0000
     atom:   21    charge:    0.8354    magn:    0.0000    constr:    0.0000
     atom:   22    charge:    0.8309    magn:    0.0000    constr:    0.0000
     atom:   23    charge:    0.8240    magn:    0.0002    constr:    0.0000
     atom:   24    charge:    0.8298    magn:   -0.0012    constr:    0.0000
     atom:   25    charge:    1.5731    magn:   -0.0362    constr:    0.0000
     atom:   26    charge:    0.8363    magn:    0.0067    constr:    0.0000
     atom:   27    charge:    0.8256    magn:    0.0003    constr:    0.0000
     atom:   28    charge:    0.8389    magn:   -0.0000    constr:    0.0000
     atom:   29    charge:    0.8313    magn:    0.0000    constr:    0.0000
     atom:   30    charge:    0.8308    magn:    0.0000    constr:    0.0000
     atom:   31    charge:    0.8309    magn:   -0.0004    constr:    0.0000
     atom:   32    charge:    0.8298    magn:   -0.0012    constr:    0.0000
     atom:   33    charge:    0.8411    magn:    0.0019    constr:    0.0000
     atom:   34    charge:    0.8223    magn:    0.0026    constr:    0.0000
     atom:   35    charge:    0.8298    magn:    0.0006    constr:    0.0000
     atom:   36    charge:    0.8274    magn:    0.0002    constr:    0.0000
     atom:   37    charge:    0.8257    magn:   -0.0000    constr:    0.0000
     atom:   38    charge:    0.8308    magn:    0.0000    constr:    0.0000
     atom:   39    charge:    0.8240    magn:    0.0002    constr:    0.0000
     atom:   40    charge:    0.8316    magn:   -0.0001    constr:    0.0000
     atom:   41    charge:    0.8309    magn:   -0.0004    constr:    0.0000
     atom:   42    charge:    0.8252    magn:    0.0002    constr:    0.0000
     atom:   43    charge:    0.8263    magn:   -0.0000    constr:    0.0000
     atom:   44    charge:    0.8274    magn:    0.0002    constr:    0.0000
     atom:   45    charge:    0.8313    magn:    0.0001    constr:    0.0000
     atom:   46    charge:    0.8309    magn:    0.0000    constr:    0.0000
     atom:   47    charge:    0.8333    magn:   -0.0001    constr:    0.0000
     atom:   48    charge:    0.8295    magn:    0.0000    constr:    0.0000
     atom:   49    charge:    0.8386    magn:   -0.0000    constr:    0.0000
     atom:   50    charge:    2.6985    magn:    0.0003    constr:    0.0000
     atom:   51    charge:    2.6836    magn:   -0.0002    constr:    0.0000
     atom:   52    charge:    2.6758    magn:    0.0023    constr:    0.0000
     atom:   53    charge:    2.6856    magn:    0.0000    constr:    0.0000
     atom:   54    charge:    2.6916    magn:    0.0001    constr:    0.0000
     atom:   55    charge:    2.6811    magn:   -0.0000    constr:    0.0000
     atom:   56    charge:    2.6824    magn:   -0.0001    constr:    0.0000
     atom:   57    charge:    2.6890    magn:    0.0002    constr:    0.0000
     atom:   58    charge:    2.6812    magn:    0.0035    constr:    0.0000
     atom:   59    charge:    2.6790    magn:    0.0062    constr:    0.0000
     atom:   60    charge:    2.6726    magn:    0.0115    constr:    0.0000
     atom:   61    charge:    2.6979    magn:    0.0010    constr:    0.0000
     atom:   62    charge:    2.6814    magn:   -0.0001    constr:    0.0000
     atom:   63    charge:    2.6811    magn:   -0.0001    constr:    0.0000
     atom:   64    charge:    2.6927    magn:    0.0000    constr:    0.0000
     atom:   65    charge:    2.6982    magn:    0.0003    constr:    0.0000
     atom:   66    charge:    2.6928    magn:    0.0155    constr:    0.0000
     atom:   67    charge:    1.5948    magn:    0.1266    constr:    0.0000
     atom:   68    charge:    2.7149    magn:   -0.0026    constr:    0.0000
     atom:   69    charge:    2.6979    magn:    0.0010    constr:    0.0000
     atom:   70    charge:    2.6916    magn:    0.0001    constr:    0.0000
     atom:   71    charge:    2.7022    magn:   -0.0000    constr:    0.0000
     atom:   72    charge:    2.6784    magn:    0.0001    constr:    0.0000
     atom:   73    charge:    2.6751    magn:    0.0009    constr:    0.0000
     atom:   74    charge:    2.6729    magn:   -0.0039    constr:    0.0000
     atom:   75    charge:    1.5948    magn:    0.1264    constr:    0.0000
     atom:   76    charge:    2.6726    magn:    0.0115    constr:    0.0000
     atom:   77    charge:    2.6856    magn:   -0.0000    constr:    0.0000
     atom:   78    charge:    2.6892    magn:   -0.0000    constr:    0.0000
     atom:   79    charge:    2.6776    magn:   -0.0000    constr:    0.0000
     atom:   80    charge:    2.6849    magn:   -0.0001    constr:    0.0000
     atom:   81    charge:    2.6752    magn:    0.0009    constr:    0.0000
     atom:   82    charge:    2.6928    magn:    0.0154    constr:    0.0000
     atom:   83    charge:    2.6790    magn:    0.0062    constr:    0.0000
     atom:   84    charge:    2.6758    magn:    0.0023    constr:    0.0000
     atom:   85    charge:    2.6849    magn:    0.0003    constr:    0.0000
     atom:   86    charge:    2.6934    magn:   -0.0001    constr:    0.0000
     atom:   87    charge:    2.6775    magn:    0.0000    constr:    0.0000
     atom:   88    charge:    2.6784    magn:    0.0001    constr:    0.0000
     atom:   89    charge:    2.6983    magn:    0.0002    constr:    0.0000
     atom:   90    charge:    2.6812    magn:    0.0035    constr:    0.0000
     atom:   91    charge:    2.6836    magn:   -0.0002    constr:    0.0000
     atom:   92    charge:    2.6994    magn:   -0.0001    constr:    0.0000
     atom:   93    charge:    2.6849    magn:    0.0002    constr:    0.0000
     atom:   94    charge:    2.6892    magn:   -0.0000    constr:    0.0000
     atom:   95    charge:    2.7022    magn:    0.0000    constr:    0.0000
     atom:   96    charge:    2.6927    magn:   -0.0000    constr:    0.0000
     atom:   97    charge:    2.6890    magn:    0.0002    constr:    0.0000
     atom:   98    charge:    2.6985    magn:    0.0003    constr:    0.0000

     total cpu time spent up to now is     3470.9 secs

     End of self-consistent calculation

 ------ SPIN UP ------------


          k = 0.0000 0.0000 0.0000 ( 27344 PWs)   bands (ev):

   -25.7081 -25.4786 -25.2854 -25.2771 -25.2552 -25.2040 -25.1470 -24.6976
   -24.4858 -24.4687 -24.4686 -24.3784 -24.3621 -24.2318 -24.1021 -24.0918
   -24.0745 -23.9334 -23.9143 -23.3444 -23.1434 -23.1384 -23.1341 -23.1226
   -23.1211 -23.1172 -23.1137 -23.0878 -23.0713 -22.8997 -22.8954 -22.7606
   -22.7071 -22.7049 -22.6828 -22.5013 -22.4914 -22.2638 -22.2489 -22.2404
   -22.2288 -22.1601 -22.1454 -22.0808 -22.0599 -22.0573 -22.0469 -20.4298
   -18.1729 -15.6628 -15.1974 -15.1938 -15.1802 -15.1481 -15.1388 -15.0742
   -14.9929 -14.9632 -14.9593 -14.9085 -14.8434 -14.5648 -14.4820 -14.4743
   -14.4437 -14.3925 -14.3658 -13.8991 -13.7535 -13.7379 -13.7165 -13.7067
   -13.6984 -13.6903 -13.6853 -13.6544 -13.6357 -13.4361 -13.3651 -13.1351
   -12.9358 -12.9234 -12.9012 -12.8882 -12.7266 -12.2517 -12.2267 -12.1908
   -12.1139 -12.0570 -11.9926 -11.5113 -11.4413 -11.4103 -11.3819 -11.3757
   -11.3733 -11.3160 -11.1196 -11.0124 -10.9963 -10.9753 -10.9576 -10.9467
   -10.9458 -10.9240 -10.8964 -10.8669 -10.8667 -10.8634 -10.8588 -10.8545
   -10.8049 -10.7920 -10.7842 -10.7648 -10.7278 -10.7176 -10.7082 -10.6791
   -10.5201 -10.5067 -10.2011 -10.1964 -10.1963 -10.1519 -10.0910  -9.8391
    -9.7448  -9.6341  -9.6184  -9.6177  -9.5373  -9.5359  -9.4554  -9.3961
    -9.3959  -9.3617  -9.3426  -9.3339  -9.3088  -9.3028  -9.2589  -9.1790
    -9.1744  -9.1142  -9.0703  -9.0635  -9.0446  -8.9753  -8.9402  -8.9039
    -8.8661  -8.8346  -8.8042  -8.6511  -8.4658  -8.3323  -7.8916  -7.8684
    -7.8619  -7.8167  -7.7616  -7.5625  -7.5597  -7.5561  -7.5481  -7.5397
    -7.5361  -7.5339  -7.5164  -7.5000  -7.4952  -7.3874  -7.3786  -7.2819
    -6.9336  -6.8541  -6.8501  -6.8330  -6.7830  -6.7654  -6.7606  -6.6385
    -6.0970  -6.0661  -6.0501  -6.0451  -5.9713  -5.9199  -5.7706  -5.7352
    -5.7333  -5.7255  -5.5740  -4.6569  -0.7305  -0.3947  -0.1499  -0.0881
    -0.0819  -0.0800  -0.0756  -0.0754  -0.0580   0.2407   0.2440   0.2462
     0.2478   0.2524   0.2547   0.4957   0.5041   0.5050   0.5068   0.5075
     0.5252   0.7845   0.9497   1.2156   1.2175   1.2184   1.2198   1.2254
     1.2273   1.3085   1.5275   1.5289   1.5324   1.5411   1.5452   1.5490
     1.5518   1.5535   1.5548   1.5582   1.5602   1.5613   1.5663   1.5760
     1.6787   1.7860   1.8048   1.8542   2.0736

 ------ SPIN DOWN ----------


          k = 0.0000 0.0000 0.0000 ( 27344 PWs)   bands (ev):

   -25.7008 -25.4744 -25.2820 -25.2749 -25.2540 -25.1916 -25.1359 -24.6939
   -24.4795 -24.4642 -24.4583 -24.3711 -24.3564 -24.2303 -24.0922 -24.0829
   -24.0695 -23.9152 -23.9010 -23.3333 -23.1365 -23.1359 -23.1305 -23.1186
   -23.1147 -23.1083 -23.1059 -23.0711 -23.0644 -22.8917 -22.8890 -22.7531
   -22.7000 -22.6990 -22.6759 -22.4867 -22.4788 -22.2535 -22.2432 -22.2318
   -22.2228 -22.1539 -22.1337 -22.0781 -22.0549 -22.0517 -22.0403 -20.2006
   -17.6975 -15.5969 -15.1951 -15.1887 -15.1770 -15.1437 -15.1363 -15.0699
   -14.9907 -14.9582 -14.9544 -14.8876 -14.8324 -14.5583 -14.4798 -14.4710
   -14.4378 -14.3758 -14.3540 -13.8839 -13.7466 -13.7325 -13.7145 -13.7050
   -13.6958 -13.6864 -13.6839 -13.6422 -13.6212 -13.3903 -13.3301 -13.1289
   -12.9335 -12.9212 -12.8904 -12.8820 -12.7102 -12.2468 -12.2209 -12.1837
   -12.1001 -12.0375 -11.9713 -11.5085 -11.4307 -11.4049 -11.3762 -11.3729
   -11.3467 -11.3104 -11.1167 -11.0075 -10.9908 -10.9729 -10.9549 -10.9418
   -10.9414 -10.9201 -10.8936 -10.8650 -10.8638 -10.8548 -10.8498 -10.8248
   -10.7886 -10.7831 -10.7767 -10.7609 -10.6952 -10.6932 -10.6844 -10.5703
   -10.4919 -10.4771 -10.1996 -10.1946 -10.1933 -10.1278 -10.0803  -9.8185
    -9.7164  -9.6170  -9.6041  -9.5906  -9.4939  -9.4734  -9.4472  -9.3941
    -9.3920  -9.3594  -9.3412  -9.3330  -9.3075  -9.3008  -9.2558  -9.1681
    -9.1645  -9.0909  -9.0425  -9.0385  -9.0269  -8.8804  -8.8639  -8.8586
    -8.8547  -8.8335  -8.7841  -8.6158  -8.4378  -8.2926  -7.8879  -7.8657
    -7.8589  -7.7986  -7.7323  -7.5513  -7.5428  -7.5412  -7.5322  -7.5268
    -7.5165  -7.5005  -7.4741  -7.4630  -7.4578  -7.3498  -7.2587  -7.2041
    -6.9056  -6.8319  -6.8258  -6.8073  -6.6944  -6.6931  -6.6150  -6.5300
    -6.0600  -6.0409  -6.0219  -6.0202  -5.8954  -5.8908  -5.7609  -5.7163
    -5.7124  -5.7023  -5.1924  -2.3657  -0.7297  -0.3942  -0.1496  -0.0881
    -0.0818  -0.0798  -0.0755  -0.0746  -0.0536   0.2409   0.2463   0.2465
     0.2483   0.2537   0.2551   0.4955   0.5042   0.5050   0.5072   0.5080
     0.5302   0.8851   1.0157   1.2157   1.2174   1.2183   1.2199   1.2280
     1.2297   1.3102   1.5275   1.5296   1.5385   1.5441   1.5473   1.5491
     1.5508   1.5532   1.5544   1.5582   1.5606   1.5617   1.5663   1.5731
     1.5871   1.6025   1.6244   1.7012   1.8191

     highest occupied, lowest unoccupied level (ev):    -4.6569   -2.3657

!    total energy              =   -1706.27018516 Ry
     Harris-Foulkes estimate   =   -1706.27018904 Ry
     estimated scf accuracy    <       0.00000034 Ry

     total magnetization       =     1.00 Bohr mag/cell
     absolute magnetization    =     1.40 Bohr mag/cell

     convergence has been achieved in   8 iterations

     Using ACE for calculation of exact exchange

     total energy              =   -1706.31328062 Ry
     Harris-Foulkes estimate   =   -1706.31328451 Ry
     est. exchange err (dexx)  =       0.04309547 Ry
     - averaged Fock potential =     193.08331875 Ry
     + Fock energy (ACE)       =     -96.65262382 Ry

     EXX: now go back to refine exchange calculation

     total cpu time spent up to now is     6575.1 secs

     Self-consistent Calculation

     iteration #  1     ecut=    20.00 Ry     beta= 0.70
     CG style diagonalization
     c_bands:  1 eigenvalues not converged
     ethr =  1.30E-09,  avg # of iterations = 15.8

     negative rho (up, down):  6.274E+00 4.341E-03

     total cpu time spent up to now is     6635.0 secs

     total energy              =   -1706.32012054 Ry
     Harris-Foulkes estimate   =   -1706.32104541 Ry
     estimated scf accuracy    <       0.00190602 Ry

     total magnetization       =     1.00 Bohr mag/cell
     absolute magnetization    =     1.44 Bohr mag/cell

     iteration #  2     ecut=    20.00 Ry     beta= 0.70
     CG style diagonalization
     ethr =  4.87E-07,  avg # of iterations =  3.8

     negative rho (up, down):  6.276E+00 4.378E-03

     total cpu time spent up to now is     6647.0 secs

     total energy              =   -1706.32043204 Ry
     Harris-Foulkes estimate   =   -1706.32056251 Ry
     estimated scf accuracy    <       0.00024376 Ry

     total magnetization       =     1.00 Bohr mag/cell
     absolute magnetization    =     1.44 Bohr mag/cell

     iteration #  3     ecut=    20.00 Ry     beta= 0.70
     CG style diagonalization
     ethr =  6.23E-08,  avg # of iterations =  3.8

     negative rho (up, down):  6.277E+00 4.416E-03

     total cpu time spent up to now is     6658.9 secs

     total energy              =   -1706.32051216 Ry
     Harris-Foulkes estimate   =   -1706.32049973 Ry
     estimated scf accuracy    <       0.00002026 Ry

     total magnetization       =     1.00 Bohr mag/cell
     absolute magnetization    =     1.45 Bohr mag/cell

     iteration #  4     ecut=    20.00 Ry     beta= 0.70
     CG style diagonalization
     ethr =  5.18E-09,  avg # of iterations =  3.7

     negative rho (up, down):  6.277E+00 4.428E-03

     total cpu time spent up to now is     6670.3 secs

     total energy              =   -1706.32051730 Ry
     Harris-Foulkes estimate   =   -1706.32051651 Ry
     estimated scf accuracy    <       0.00000105 Ry

     total magnetization       =     1.00 Bohr mag/cell
     absolute magnetization    =     1.45 Bohr mag/cell

     iteration #  5     ecut=    20.00 Ry     beta= 0.70
     CG style diagonalization
     ethr =  2.69E-10,  avg # of iterations =  3.6

     negative rho (up, down):  6.277E+00 4.432E-03
 
     Magnetic moment per site:
     atom:    1    charge:    0.8354    magn:   -0.0000    constr:    0.0000
     atom:    2    charge:    0.8220    magn:    0.0002    constr:    0.0000
     atom:    3    charge:    0.8266    magn:    0.0005    constr:    0.0000
     atom:    4    charge:    0.8357    magn:   -0.0001    constr:    0.0000
     atom:    5    charge:    0.8323    magn:    0.0000    constr:    0.0000
     atom:    6    charge:    0.8263    magn:    0.0000    constr:    0.0000
     atom:    7    charge:    0.8368    magn:   -0.0000    constr:    0.0000
     atom:    8    charge:    0.8264    magn:   -0.0000    constr:    0.0000
     atom:    9    charge:    0.8277    magn:   -0.0004    constr:    0.0000
     atom:   10    charge:    0.8191    magn:    0.0024    constr:    0.0000
     atom:   11    charge:    0.8225    magn:    0.0003    constr:    0.0000
     atom:   12    charge:    0.8293    magn:    0.0000    constr:    0.0000
     atom:   13    charge:    0.8291    magn:    0.0000    constr:    0.0000
     atom:   14    charge:    0.8262    magn:    0.0000    constr:    0.0000
     atom:   15    charge:    0.8301    magn:   -0.0001    constr:    0.0000
     atom:   16    charge:    0.8285    magn:   -0.0002    constr:    0.0000
     atom:   17    charge:    0.8383    magn:    0.0016    constr:    0.0000
     atom:   18    charge:    0.8335    magn:    0.0063    constr:    0.0000
     atom:   19    charge:    0.8364    magn:   -0.0004    constr:    0.0000
     atom:   20    charge:    0.8292    magn:    0.0000    constr:    0.0000
     atom:   21    charge:    0.8323    magn:    0.0000    constr:    0.0000
     atom:   22    charge:    0.8278    magn:    0.0000    constr:    0.0000
     atom:   23    charge:    0.8208    magn:    0.0001    constr:    0.0000
     atom:   24    charge:    0.8267    magn:   -0.0014    constr:    0.0000
     atom:   25    charge:    1.5694    magn:   -0.0436    constr:    0.0000
     atom:   26    charge:    0.8335    magn:    0.0063    constr:    0.0000
     atom:   27    charge:    0.8225    magn:    0.0003    constr:    0.0000
     atom:   28    charge:    0.8357    magn:   -0.0000    constr:    0.0000
     atom:   29    charge:    0.8282    magn:    0.0000    constr:    0.0000
     atom:   30    charge:    0.8277    magn:    0.0000    constr:    0.0000
     atom:   31    charge:    0.8278    magn:   -0.0004    constr:    0.0000
     atom:   32    charge:    0.8267    magn:   -0.0014    constr:    0.0000
     atom:   33    charge:    0.8383    magn:    0.0016    constr:    0.0000
     atom:   34    charge:    0.8191    magn:    0.0024    constr:    0.0000
     atom:   35    charge:    0.8266    magn:    0.0005    constr:    0.0000
     atom:   36    charge:    0.8243    magn:    0.0002    constr:    0.0000
     atom:   37    charge:    0.8226    magn:   -0.0000    constr:    0.0000
     atom:   38    charge:    0.8277    magn:   -0.0000    constr:    0.0000
     atom:   39    charge:    0.8208    magn:    0.0001    constr:    0.0000
     atom:   40    charge:    0.8285    magn:   -0.0001    constr:    0.0000
     atom:   41    charge:    0.8277    magn:   -0.0004    constr:    0.0000
     atom:   42    charge:    0.8220    magn:    0.0002    constr:    0.0000
     atom:   43    charge:    0.8231    magn:   -0.0000    constr:    0.0000
     atom:   44    charge:    0.8242    magn:    0.0002    constr:    0.0000
     atom:   45    charge:    0.8282    magn:    0.0000    constr:    0.0000
     atom:   46    charge:    0.8278    magn:    0.0000    constr:    0.0000
     atom:   47    charge:    0.8301    magn:   -0.0001    constr:    0.0000
     atom:   48    charge:    0.8264    magn:    0.0000    constr:    0.0000
     atom:   49    charge:    0.8354    magn:   -0.0000    constr:    0.0000
     atom:   50    charge:    2.6980    magn:    0.0003    constr:    0.0000
     atom:   51    charge:    2.6831    magn:   -0.0001    constr:    0.0000
     atom:   52    charge:    2.6753    magn:    0.0020    constr:    0.0000
     atom:   53    charge:    2.6851    magn:    0.0000    constr:    0.0000
     atom:   54    charge:    2.6911    magn:    0.0001    constr:    0.0000
     atom:   55    charge:    2.6806    magn:    0.0000    constr:    0.0000
     atom:   56    charge:    2.6819    magn:   -0.0000    constr:    0.0000
     atom:   57    charge:    2.6885    magn:    0.0002    constr:    0.0000
     atom:   58    charge:    2.6808    magn:    0.0032    constr:    0.0000
     atom:   59    charge:    2.6785    magn:    0.0062    constr:    0.0000
     atom:   60    charge:    2.6721    magn:    0.0109    constr:    0.0000
     atom:   61    charge:    2.6974    magn:    0.0008    constr:    0.0000
     atom:   62    charge:    2.6809    magn:   -0.0001    constr:    0.0000
     atom:   63    charge:    2.6806    magn:   -0.0000    constr:    0.0000
     atom:   64    charge:    2.6922    magn:    0.0000    constr:    0.0000
     atom:   65    charge:    2.6978    magn:    0.0003    constr:    0.0000
     atom:   66    charge:    2.6924    magn:    0.0149    constr:    0.0000
     atom:   67    charge:    1.5940    magn:    0.1321    constr:    0.0000
     atom:   68    charge:    2.7143    magn:   -0.0024    constr:    0.0000
     atom:   69    charge:    2.6974    magn:    0.0008    constr:    0.0000
     atom:   70    charge:    2.6911    magn:    0.0000    constr:    0.0000
     atom:   71    charge:    2.7017    magn:   -0.0000    constr:    0.0000
     atom:   72    charge:    2.6779    magn:    0.0001    constr:    0.0000
     atom:   73    charge:    2.6747    magn:    0.0007    constr:    0.0000
     atom:   74    charge:    2.6720    magn:   -0.0045    constr:    0.0000
     atom:   75    charge:    1.5940    magn:    0.1320    constr:    0.0000
     atom:   76    charge:    2.6721    magn:    0.0109    constr:    0.0000
     atom:   77    charge:    2.6851    magn:    0.0000    constr:    0.0000
     atom:   78    charge:    2.6887    magn:   -0.0000    constr:    0.0000
     atom:   79    charge:    2.6771    magn:   -0.0000    constr:    0.0000
     atom:   80    charge:    2.6844    magn:   -0.0001    constr:    0.0000
     atom:   81    charge:    2.6747    magn:    0.0007    constr:    0.0000
     atom:   82    charge:    2.6924    magn:    0.0149    constr:    0.0000
     atom:   83    charge:    2.6785    magn:    0.0062    constr:    0.0000
     atom:   84    charge:    2.6753    magn:    0.0020    constr:    0.0000
     atom:   85    charge:    2.6844    magn:    0.0002    constr:    0.0000
     atom:   86    charge:    2.6929    magn:   -0.0001    constr:    0.0000
     atom:   87    charge:    2.6771    magn:    0.0000    constr:    0.0000
     atom:   88    charge:    2.6779    magn:    0.0001    constr:    0.0000
     atom:   89    charge:    2.6978    magn:    0.0002    constr:    0.0000
     atom:   90    charge:    2.6808    magn:    0.0032    constr:    0.0000
     atom:   91    charge:    2.6831    magn:   -0.0002    constr:    0.0000
     atom:   92    charge:    2.6989    magn:   -0.0001    constr:    0.0000
     atom:   93    charge:    2.6844    magn:    0.0002    constr:    0.0000
     atom:   94    charge:    2.6887    magn:   -0.0000    constr:    0.0000
     atom:   95    charge:    2.7017    magn:    0.0000    constr:    0.0000
     atom:   96    charge:    2.6922    magn:   -0.0000    constr:    0.0000
     atom:   97    charge:    2.6885    magn:    0.0002    constr:    0.0000
     atom:   98    charge:    2.6980    magn:    0.0003    constr:    0.0000

     total cpu time spent up to now is     6681.6 secs

     End of self-consistent calculation

 ------ SPIN UP ------------


          k = 0.0000 0.0000 0.0000 ( 27344 PWs)   bands (ev):

   -25.6902 -25.4598 -25.2681 -25.2600 -25.2378 -25.1874 -25.1305 -24.6801
   -24.4693 -24.4523 -24.4519 -24.3619 -24.3457 -24.2152 -24.0857 -24.0753
   -24.0593 -23.9179 -23.8990 -23.3283 -23.1276 -23.1228 -23.1183 -23.1070
   -23.1054 -23.1016 -23.0980 -23.0726 -23.0566 -22.8847 -22.8806 -22.7450
   -22.6920 -22.6896 -22.6687 -22.4863 -22.4771 -22.2489 -22.2341 -22.2258
   -22.2143 -22.1455 -22.1312 -22.0657 -22.0452 -22.0428 -22.0328 -20.4237
   -18.1872 -15.6562 -15.1882 -15.1845 -15.1710 -15.1388 -15.1292 -15.0643
   -14.9824 -14.9529 -14.9495 -14.8990 -14.8354 -14.5609 -14.4795 -14.4725
   -14.4411 -14.3906 -14.3634 -13.8934 -13.7472 -13.7314 -13.7100 -13.7002
   -13.6922 -13.6842 -13.6792 -13.6496 -13.6298 -13.4315 -13.3613 -13.1286
   -12.9268 -12.9144 -12.8937 -12.8805 -12.7195 -12.2475 -12.2222 -12.1868
   -12.1101 -12.0536 -11.9901 -11.5139 -11.4440 -11.4130 -11.3846 -11.3782
   -11.3684 -11.3186 -11.1216 -11.0134 -10.9977 -10.9754 -10.9603 -10.9483
   -10.9476 -10.9266 -10.8994 -10.8701 -10.8701 -10.8625 -10.8583 -10.8563
   -10.8078 -10.7870 -10.7794 -10.7599 -10.7238 -10.7213 -10.7136 -10.6767
   -10.5260 -10.5132 -10.2119 -10.2074 -10.2072 -10.1636 -10.1032  -9.8510
    -9.7382  -9.6309  -9.6156  -9.6154  -9.5360  -9.5344  -9.4652  -9.4052
    -9.4044  -9.3709  -9.3517  -9.3436  -9.3200  -9.3146  -9.2715  -9.1860
    -9.1764  -9.1275  -9.0694  -9.0625  -9.0455  -8.9771  -8.9423  -8.9145
    -8.8729  -8.8415  -8.8126  -8.6606  -8.4769  -8.3468  -7.9073  -7.8839
    -7.8777  -7.8337  -7.7634  -7.5700  -7.5674  -7.5636  -7.5555  -7.5474
    -7.5438  -7.5416  -7.5253  -7.5179  -7.5049  -7.4065  -7.3890  -7.2940
    -6.9472  -6.8695  -6.8659  -6.8502  -6.8067  -6.7887  -6.7780  -6.6587
    -6.1224  -6.0927  -6.0772  -6.0722  -5.9998  -5.9492  -5.8010  -5.7670
    -5.7646  -5.7571  -5.6094  -4.7213  -0.7275  -0.3949  -0.1462  -0.0853
    -0.0792  -0.0771  -0.0735  -0.0732  -0.0569   0.2408   0.2446   0.2460
     0.2480   0.2519   0.2543   0.4989   0.5072   0.5081   0.5095   0.5105
     0.5273   0.8292   0.9597   1.2173   1.2192   1.2201   1.2213   1.2267
     1.2287   1.3131   1.5267   1.5285   1.5290   1.5292   1.5351   1.5357
     1.5530   1.5608   1.5612   1.5636   1.5661   1.5831   1.5912   1.6078
     1.7239   1.8385   1.8561   1.9012   2.1060

 ------ SPIN DOWN ----------


          k = 0.0000 0.0000 0.0000 ( 27344 PWs)   bands (ev):

   -25.6850 -25.4596 -25.2652 -25.2581 -25.2369 -25.1762 -25.1209 -24.6791
   -24.4639 -24.4486 -24.4427 -24.3551 -24.3406 -24.2144 -24.0767 -24.0675
   -24.0549 -23.9006 -23.8866 -23.3194 -23.1214 -23.1206 -23.1153 -23.1033
   -23.0995 -23.0932 -23.0920 -23.0574 -23.0506 -22.8775 -22.8747 -22.7384
   -22.6856 -22.6846 -22.6626 -22.4726 -22.4650 -22.2396 -22.2294 -22.2181
   -22.2090 -22.1399 -22.1205 -22.0636 -22.0409 -22.0378 -22.0271 -20.1914
   -17.6763 -15.5900 -15.1864 -15.1799 -15.1684 -15.1344 -15.1268 -15.0602
   -14.9806 -14.9480 -14.9450 -14.8778 -14.8245 -14.5548 -14.4776 -14.4695
   -14.4353 -14.3732 -14.3516 -13.8782 -13.7414 -13.7266 -13.7084 -13.6989
   -13.6900 -13.6809 -13.6781 -13.6379 -13.6152 -13.3832 -13.3241 -13.1234
   -12.9249 -12.9125 -12.8834 -12.8744 -12.7034 -12.2433 -12.2172 -12.1802
   -12.0960 -12.0335 -11.9677 -11.5117 -11.4338 -11.4080 -11.3789 -11.3756
   -11.3428 -11.3131 -11.1194 -11.0088 -10.9927 -10.9734 -10.9581 -10.9439
   -10.9435 -10.9230 -10.8968 -10.8687 -10.8674 -10.8588 -10.8539 -10.8241
   -10.7914 -10.7794 -10.7733 -10.7570 -10.6985 -10.6981 -10.6832 -10.5678
   -10.4978 -10.4806 -10.2106 -10.2058 -10.2044 -10.1389 -10.0926  -9.8298
    -9.7195  -9.6163  -9.6040  -9.5916  -9.4926  -9.4713  -9.4574  -9.4030
    -9.4013  -9.3687  -9.3505  -9.3428  -9.3189  -9.3130  -9.2687  -9.1762
    -9.1710  -9.1034  -9.0445  -9.0410  -9.0295  -8.8900  -8.8710  -8.8577
    -8.8555  -8.8407  -8.7933  -8.6240  -8.4474  -8.3053  -7.9039  -7.8813
    -7.8750  -7.8159  -7.7498  -7.5607  -7.5526  -7.5511  -7.5415  -7.5372
    -7.5270  -7.5126  -7.4906  -7.4778  -7.4749  -7.3669  -7.2692  -7.2170
    -6.9251  -6.8525  -6.8452  -6.8288  -6.7139  -6.7127  -6.6319  -6.5497
    -6.0914  -6.0734  -6.0533  -6.0513  -5.9263  -5.9212  -5.7945  -5.7516
    -5.7475  -5.7386  -5.2132  -2.2598  -0.7268  -0.3946  -0.1460  -0.0854
    -0.0791  -0.0771  -0.0733  -0.0727  -0.0526   0.2408   0.2456   0.2464
     0.2483   0.2531   0.2543   0.4986   0.5073   0.5081   0.5102   0.5106
     0.5324   0.8907   1.0314   1.2174   1.2190   1.2198   1.2214   1.2294
     1.2310   1.3147   1.5271   1.5280   1.5293   1.5305   1.5357   1.5359
     1.5524   1.5607   1.5612   1.5656   1.5658   1.5870   1.5891   1.6072
     1.6170   1.6433   1.6497   1.7386   1.8684

     highest occupied, lowest unoccupied level (ev):    -4.7213   -2.2598

!    total energy              =   -1706.32051686 Ry
     Harris-Foulkes estimate   =   -1706.32051771 Ry
     estimated scf accuracy    <       0.00000014 Ry

     total magnetization       =     1.00 Bohr mag/cell
     absolute magnetization    =     1.45 Bohr mag/cell

     convergence has been achieved in   5 iterations

     Using ACE for calculation of exact exchange

[...]
   -22.2016 -22.1324 -22.1133 -22.0562 -22.0334 -22.0306 -22.0199 -20.1840
   -17.6594 -15.5839 -15.1804 -15.1738 -15.1625 -15.1284 -15.1209 -15.0543
   -14.9741 -14.9417 -14.9389 -14.8711 -14.8184 -14.5499 -14.4735 -14.4654
   -14.4310 -14.3682 -14.3470 -13.8727 -13.7359 -13.7206 -13.7027 -13.6930
   -13.6844 -13.6755 -13.6726 -13.6326 -13.6092 -13.3760 -13.3181 -13.1176
   -12.9185 -12.9061 -12.8775 -12.8684 -12.6973 -12.2376 -12.2118 -12.1747
   -12.0902 -12.0276 -11.9620 -11.5077 -11.4300 -11.4039 -11.3748 -11.3716
   -11.3385 -11.3093 -11.1152 -11.0041 -10.9885 -10.9686 -10.9542 -10.9395
   -10.9392 -10.9188 -10.8929 -10.8647 -10.8634 -10.8551 -10.8501 -10.8216
   -10.7868 -10.7752 -10.7694 -10.7530 -10.6951 -10.6936 -10.6799 -10.5646
   -10.4944 -10.4760 -10.2082 -10.2037 -10.2023 -10.1362 -10.0905  -9.8273
    -9.7199  -9.6132  -9.6011  -9.5896  -9.4895  -9.4683  -9.4544  -9.4000
    -9.3981  -9.3658  -9.3476  -9.3401  -9.3166  -9.3106  -9.2665  -9.1734
    -9.1705  -9.1008  -9.0429  -9.0395  -9.0274  -8.8866  -8.8670  -8.8554
    -8.8531  -8.8371  -8.7899  -8.6196  -8.4439  -8.3027  -7.9017  -7.8790
    -7.8728  -7.8139  -7.7558  -7.5615  -7.5538  -7.5524  -7.5425  -7.5387
    -7.5288  -7.5147  -7.4885  -7.4803  -7.4791  -7.3647  -7.2710  -7.2184
    -6.9301  -6.8573  -6.8496  -6.8339  -6.7115  -6.7103  -6.6364  -6.5537
    -6.1006  -6.0821  -6.0620  -6.0597  -5.9353  -5.9296  -5.8042  -5.7617
    -5.7575  -5.7489  -5.2194  -2.2091  -0.7265  -0.3949  -0.1455  -0.0850
    -0.0788  -0.0768  -0.0731  -0.0726  -0.0527   0.2406   0.2450   0.2462
     0.2479   0.2527   0.2537   0.4991   0.5078   0.5085   0.5106   0.5109
     0.5326   0.8895   1.0316   1.2175   1.2192   1.2200   1.2215   1.2294
     1.2310   1.3156   1.5263   1.5273   1.5275   1.5281   1.5346   1.5349
     1.5523   1.5604   1.5608   1.5653   1.5659   1.6000   1.6021   1.6219
     1.6266   1.6585   1.6621   1.7523   1.8856

     highest occupied, lowest unoccupied level (ev):    -4.7572   -2.2091

!    total energy              =   -1706.32256096 Ry
     Harris-Foulkes estimate   =   -1706.32255765 Ry
     estimated scf accuracy    <       0.00000095 Ry

     total magnetization       =     1.00 Bohr mag/cell
     absolute magnetization    =     1.48 Bohr mag/cell

     convergence has been achieved in   1 iterations

     Using ACE for calculation of exact exchange

     total energy              =   -1706.32256286 Ry
     Harris-Foulkes estimate   =   -1706.32255955 Ry
     est. exchange err (dexx)  =       0.00000190 Ry
     - averaged Fock potential =     193.46601627 Ry
     + Fock energy (ACE)       =     -96.73407858 Ry

     EXX: now go back to refine exchange calculation

     total cpu time spent up to now is    19151.9 secs

     Self-consistent Calculation

     iteration #  1     ecut=    20.00 Ry     beta= 0.70
     CG style diagonalization
     c_bands:  1 eigenvalues not converged
     ethr =  5.49E-10,  avg # of iterations =  3.8

     negative rho (up, down):  6.281E+00 4.575E-03
 
     Magnetic moment per site:
     atom:    1    charge:    0.8348    magn:   -0.0000    constr:    0.0000
     atom:    2    charge:    0.8213    magn:    0.0002    constr:    0.0000
     atom:    3    charge:    0.8260    magn:    0.0004    constr:    0.0000
     atom:    4    charge:    0.8351    magn:   -0.0000    constr:    0.0000
     atom:    5    charge:    0.8316    magn:    0.0000    constr:    0.0000
     atom:    6    charge:    0.8256    magn:    0.0000    constr:    0.0000
     atom:    7    charge:    0.8361    magn:   -0.0000    constr:    0.0000
     atom:    8    charge:    0.8257    magn:    0.0000    constr:    0.0000
     atom:    9    charge:    0.8270    magn:   -0.0003    constr:    0.0000
     atom:   10    charge:    0.8185    magn:    0.0023    constr:    0.0000
     atom:   11    charge:    0.8218    magn:    0.0003    constr:    0.0000
     atom:   12    charge:    0.8286    magn:    0.0000    constr:    0.0000
     atom:   13    charge:    0.8284    magn:   -0.0000    constr:    0.0000
     atom:   14    charge:    0.8256    magn:    0.0000    constr:    0.0000
     atom:   15    charge:    0.8295    magn:   -0.0001    constr:    0.0000
     atom:   16    charge:    0.8278    magn:   -0.0001    constr:    0.0000
     atom:   17    charge:    0.8377    magn:    0.0014    constr:    0.0000
     atom:   18    charge:    0.8329    magn:    0.0058    constr:    0.0000
     atom:   19    charge:    0.8357    magn:   -0.0004    constr:    0.0000
     atom:   20    charge:    0.8286    magn:    0.0000    constr:    0.0000
     atom:   21    charge:    0.8316    magn:    0.0000    constr:    0.0000
     atom:   22    charge:    0.8271    magn:    0.0000    constr:    0.0000
     atom:   23    charge:    0.8202    magn:    0.0001    constr:    0.0000
     atom:   24    charge:    0.8260    magn:   -0.0015    constr:    0.0000
     atom:   25    charge:    1.5691    magn:   -0.0510    constr:    0.0000
     atom:   26    charge:    0.8329    magn:    0.0058    constr:    0.0000
     atom:   27    charge:    0.8218    magn:    0.0003    constr:    0.0000
     atom:   28    charge:    0.8351    magn:   -0.0000    constr:    0.0000
     atom:   29    charge:    0.8275    magn:    0.0000    constr:    0.0000
     atom:   30    charge:    0.8270    magn:   -0.0000    constr:    0.0000
     atom:   31    charge:    0.8271    magn:   -0.0004    constr:    0.0000
     atom:   32    charge:    0.8260    magn:   -0.0015    constr:    0.0000
     atom:   33    charge:    0.8377    magn:    0.0014    constr:    0.0000
     atom:   34    charge:    0.8185    magn:    0.0023    constr:    0.0000
     atom:   35    charge:    0.8260    magn:    0.0004    constr:    0.0000
     atom:   36    charge:    0.8236    magn:    0.0001    constr:    0.0000
     atom:   37    charge:    0.8219    magn:   -0.0000    constr:    0.0000
     atom:   38    charge:    0.8270    magn:   -0.0000    constr:    0.0000
     atom:   39    charge:    0.8202    magn:    0.0001    constr:    0.0000
     atom:   40    charge:    0.8278    magn:   -0.0001    constr:    0.0000
     atom:   41    charge:    0.8270    magn:   -0.0003    constr:    0.0000
     atom:   42    charge:    0.8213    magn:    0.0002    constr:    0.0000
     atom:   43    charge:    0.8225    magn:   -0.0000    constr:    0.0000
     atom:   44    charge:    0.8236    magn:    0.0001    constr:    0.0000
     atom:   45    charge:    0.8275    magn:    0.0000    constr:    0.0000
     atom:   46    charge:    0.8271    magn:    0.0000    constr:    0.0000
     atom:   47    charge:    0.8295    magn:   -0.0001    constr:    0.0000
     atom:   48    charge:    0.8257    magn:    0.0000    constr:    0.0000
     atom:   49    charge:    0.8348    magn:   -0.0000    constr:    0.0000
     atom:   50    charge:    2.6984    magn:    0.0003    constr:    0.0000
     atom:   51    charge:    2.6835    magn:   -0.0001    constr:    0.0000
     atom:   52    charge:    2.6757    magn:    0.0018    constr:    0.0000
     atom:   53    charge:    2.6856    magn:    0.0000    constr:    0.0000
     atom:   54    charge:    2.6915    magn:    0.0001    constr:    0.0000
     atom:   55    charge:    2.6811    magn:    0.0000    constr:    0.0000
     atom:   56    charge:    2.6823    magn:   -0.0000    constr:    0.0000
     atom:   57    charge:    2.6890    magn:    0.0002    constr:    0.0000
     atom:   58    charge:    2.6812    magn:    0.0029    constr:    0.0000
     atom:   59    charge:    2.6789    magn:    0.0062    constr:    0.0000
     atom:   60    charge:    2.6725    magn:    0.0103    constr:    0.0000
     atom:   61    charge:    2.6978    magn:    0.0008    constr:    0.0000
     atom:   62    charge:    2.6813    magn:   -0.0000    constr:    0.0000
     atom:   63    charge:    2.6811    magn:    0.0000    constr:    0.0000
     atom:   64    charge:    2.6926    magn:    0.0000    constr:    0.0000
     atom:   65    charge:    2.6982    magn:    0.0003    constr:    0.0000
     atom:   66    charge:    2.6928    magn:    0.0143    constr:    0.0000
     atom:   67    charge:    1.5947    magn:    0.1372    constr:    0.0000
     atom:   68    charge:    2.7148    magn:   -0.0017    constr:    0.0000
     atom:   69    charge:    2.6978    magn:    0.0008    constr:    0.0000
     atom:   70    charge:    2.6915    magn:    0.0001    constr:    0.0000
     atom:   71    charge:    2.7021    magn:   -0.0000    constr:    0.0000
     atom:   72    charge:    2.6783    magn:    0.0001    constr:    0.0000
     atom:   73    charge:    2.6751    magn:    0.0006    constr:    0.0000
     atom:   74    charge:    2.6724    magn:   -0.0048    constr:    0.0000
     atom:   75    charge:    1.5947    magn:    0.1372    constr:    0.0000
     atom:   76    charge:    2.6725    magn:    0.0103    constr:    0.0000
     atom:   77    charge:    2.6856    magn:    0.0000    constr:    0.0000
     atom:   78    charge:    2.6891    magn:    0.0000    constr:    0.0000
     atom:   79    charge:    2.6775    magn:   -0.0000    constr:    0.0000
     atom:   80    charge:    2.6848    magn:   -0.0001    constr:    0.0000
     atom:   81    charge:    2.6751    magn:    0.0006    constr:    0.0000
     atom:   82    charge:    2.6928    magn:    0.0143    constr:    0.0000
     atom:   83    charge:    2.6789    magn:    0.0062    constr:    0.0000
     atom:   84    charge:    2.6757    magn:    0.0018    constr:    0.0000
     atom:   85    charge:    2.6847    magn:    0.0002    constr:    0.0000
     atom:   86    charge:    2.6933    magn:   -0.0001    constr:    0.0000
     atom:   87    charge:    2.6775    magn:   -0.0000    constr:    0.0000
     atom:   88    charge:    2.6783    magn:    0.0001    constr:    0.0000
     atom:   89    charge:    2.6982    magn:    0.0003    constr:    0.0000
     atom:   90    charge:    2.6812    magn:    0.0029    constr:    0.0000
     atom:   91    charge:    2.6835    magn:   -0.0001    constr:    0.0000
     atom:   92    charge:    2.6993    magn:   -0.0000    constr:    0.0000
     atom:   93    charge:    2.6847    magn:    0.0002    constr:    0.0000
     atom:   94    charge:    2.6891    magn:    0.0000    constr:    0.0000
     atom:   95    charge:    2.7021    magn:   -0.0000    constr:    0.0000
     atom:   96    charge:    2.6926    magn:   -0.0000    constr:    0.0000
     atom:   97    charge:    2.6890    magn:    0.0002    constr:    0.0000
     atom:   98    charge:    2.6984    magn:    0.0003    constr:    0.0000

     total cpu time spent up to now is    19168.5 secs

     End of self-consistent calculation

 ------ SPIN UP ------------


          k = 0.0000 0.0000 0.0000 ( 27344 PWs)   bands (ev):

   -25.6794 -25.4475 -25.2591 -25.2515 -25.2294 -25.1784 -25.1210 -24.6695
   -24.4603 -24.4437 -24.4427 -24.3532 -24.3371 -24.2064 -24.0764 -24.0660
   -24.0511 -23.9091 -23.8901 -23.3183 -23.1186 -23.1140 -23.1095 -23.0979
   -23.0967 -23.0928 -23.0894 -23.0634 -23.0483 -22.8760 -22.8719 -22.7360
   -22.6831 -22.6808 -22.6605 -22.4770 -22.4683 -22.2398 -22.2250 -22.2169
   -22.2055 -22.1367 -22.1224 -22.0572 -22.0364 -22.0344 -22.0242 -20.4132
   -18.1911 -15.6471 -15.1812 -15.1776 -15.1643 -15.1322 -15.1226 -15.0576
   -14.9750 -14.9459 -14.9424 -14.8918 -14.8285 -14.5550 -14.4744 -14.4674
   -14.4362 -14.3852 -14.3579 -13.8867 -13.7400 -13.7242 -13.7034 -13.6936
   -13.6857 -13.6778 -13.6728 -13.6432 -13.6230 -13.4253 -13.3556 -13.1212
   -12.9196 -12.9072 -12.8867 -12.8737 -12.7123 -12.2406 -12.2154 -12.1801
   -12.1036 -12.0474 -11.9843 -11.5085 -11.4389 -11.4078 -11.3799 -11.3733
   -11.3622 -11.3140 -11.1160 -11.0074 -10.9921 -10.9695 -10.9552 -10.9429
   -10.9423 -10.9214 -10.8946 -10.8653 -10.8652 -10.8578 -10.8536 -10.8469
   -10.8026 -10.7814 -10.7744 -10.7550 -10.7184 -10.7165 -10.7093 -10.6713
   -10.5221 -10.5093 -10.2086 -10.2045 -10.2042 -10.1601 -10.1000  -9.8479
    -9.7290  -9.6258  -9.6112  -9.6108  -9.5321  -9.5306  -9.4609  -9.4010
    -9.4002  -9.3671  -9.3480  -9.3401  -9.3168  -9.3112  -9.2682  -9.1823
    -9.1706  -9.1241  -9.0651  -9.0580  -9.0426  -8.9742  -8.9399  -8.9103
    -8.8678  -8.8369  -8.8078  -8.6562  -8.4735  -8.3444  -7.9040  -7.8805
    -7.8746  -7.8306  -7.7567  -7.5691  -7.5662  -7.5629  -7.5549  -7.5470
    -7.5434  -7.5410  -7.5245  -7.5158  -7.5057  -7.4046  -7.3896  -7.2959
    -6.9476  -6.8714  -6.8680  -6.8532  -6.8056  -6.7876  -6.7805  -6.6633
    -6.1272  -6.0981  -6.0830  -6.0782  -6.0066  -5.9565  -5.8086  -5.7752
    -5.7724  -5.7649  -5.6200  -4.7581  -0.7272  -0.3952  -0.1457  -0.0849
    -0.0788  -0.0769  -0.0735  -0.0730  -0.0570   0.2407   0.2450   0.2458
     0.2478   0.2514   0.2540   0.4994   0.5077   0.5086   0.5097   0.5109
     0.5274   0.8560   0.9702   1.2175   1.2194   1.2202   1.2214   1.2267
     1.2287   1.3140   1.5262   1.5275   1.5277   1.5290   1.5332   1.5342
     1.5528   1.5607   1.5611   1.5638   1.5661   1.5947   1.6076   1.6225
     1.7406   1.8574   1.8743   1.9196   2.1181

 ------ SPIN DOWN ----------


          k = 0.0000 0.0000 0.0000 ( 27344 PWs)   bands (ev):

   -25.6760 -25.4507 -25.2564 -25.2498 -25.2286 -25.1679 -25.1124 -24.6706
   -24.4554 -24.4401 -24.4343 -24.3466 -24.3323 -24.2061 -24.0680 -24.0589
   -24.0466 -23.8924 -23.8782 -23.3109 -23.1128 -23.1120 -23.1069 -23.0948
   -23.0911 -23.0850 -23.0836 -23.0492 -23.0425 -22.8692 -22.8661 -22.7300
   -22.6772 -22.6764 -22.6545 -22.4641 -22.4566 -22.2310 -22.2208 -22.2098
   -22.2006 -22.1314 -22.1123 -22.0553 -22.0324 -22.0296 -22.0188 -20.1821
   -17.6569 -15.5828 -15.1796 -15.1730 -15.1618 -15.1278 -15.1203 -15.0537
   -14.9734 -14.9410 -14.9382 -14.8702 -14.8175 -14.5491 -14.4728 -14.4646
   -14.4303 -14.3674 -14.3462 -13.8719 -13.7351 -13.7197 -13.7020 -13.6923
   -13.6836 -13.6747 -13.6718 -13.6318 -13.6084 -13.3749 -13.3172 -13.1168
   -12.9178 -12.9054 -12.8767 -12.8676 -12.6964 -12.2367 -12.2110 -12.1738
   -12.0893 -12.0266 -11.9611 -11.5068 -11.4291 -11.4030 -11.3740 -11.3708
   -11.3379 -11.3085 -11.1143 -11.0031 -10.9876 -10.9677 -10.9533 -10.9387
   -10.9383 -10.9180 -10.8921 -10.8639 -10.8626 -10.8543 -10.8492 -10.8208
   -10.7858 -10.7745 -10.7688 -10.7524 -10.6942 -10.6927 -10.6792 -10.5639
   -10.4935 -10.4750 -10.2074 -10.2029 -10.2015 -10.1352 -10.0895  -9.8263
    -9.7193  -9.6125  -9.6004  -9.5889  -9.4888  -9.4677  -9.4534  -9.3992
    -9.3972  -9.3650  -9.3468  -9.3393  -9.3158  -9.3098  -9.2656  -9.1725
    -9.1699  -9.0997  -9.0422  -9.0388  -9.0266  -8.8855  -8.8661  -8.8547
    -8.8523  -8.8362  -8.7888  -8.6185  -8.4429  -8.3017  -7.9007  -7.8781
    -7.8718  -7.8129  -7.7552  -7.5608  -7.5531  -7.5518  -7.5418  -7.5380
    -7.5281  -7.5140  -7.4875  -7.4796  -7.4784  -7.3636  -7.2703  -7.2176
    -6.9294  -6.8567  -6.8489  -6.8331  -6.7101  -6.7089  -6.6357  -6.5529
    -6.0999  -6.0814  -6.0613  -6.0590  -5.9347  -5.9288  -5.8035  -5.7610
    -5.7568  -5.7483  -5.2182  -2.2054  -0.7265  -0.3950  -0.1455  -0.0851
    -0.0788  -0.0769  -0.0732  -0.0727  -0.0527   0.2406   0.2449   0.2462
     0.2479   0.2527   0.2537   0.4991   0.5077   0.5085   0.5106   0.5108
     0.5326   0.8894   1.0315   1.2175   1.2192   1.2200   1.2215   1.2294
     1.2310   1.3156   1.5263   1.5272   1.5274   1.5281   1.5345   1.5348
     1.5522   1.5604   1.5608   1.5652   1.5659   1.6003   1.6026   1.6224
     1.6270   1.6589   1.6625   1.7527   1.8861

     highest occupied, lowest unoccupied level (ev):    -4.7581   -2.2054

!    total energy              =   -1706.32256358 Ry
     Harris-Foulkes estimate   =   -1706.32256399 Ry
     estimated scf accuracy    <       0.00000035 Ry

     total magnetization       =     1.00 Bohr mag/cell
     absolute magnetization    =     1.48 Bohr mag/cell

     convergence has been achieved in   1 iterations

     Using ACE for calculation of exact exchange

!!   total energy              =   -1706.32256399 Ry
     Harris-Foulkes estimate   =   -1706.32256441 Ry
     est. exchange err (dexx)  =       0.00000041 Ry
     - averaged Fock potential =     193.46720286 Ry
     + Fock energy (ACE)       =     -96.73312469 Ry

     EXX self-consistency reached

     Writing output data file C2Cn.save/
 
     init_run     :      1.44s CPU      1.58s WALL (       1 calls)
     electrons    :    574.45s CPU    580.57s WALL (       7 calls)

     Called by init_run:
     wfcinit      :      0.64s CPU      0.69s WALL (       1 calls)
     potinit      :      0.36s CPU      0.37s WALL (       1 calls)
     hinit0       :      0.30s CPU      0.31s WALL (       1 calls)

     Called by electrons:
     c_bands      :    548.57s CPU    553.27s WALL (      33 calls)
     sum_band     :      5.98s CPU      6.43s WALL (      33 calls)
     v_of_rho     :      2.41s CPU      2.48s WALL (      35 calls)
     newd         :      0.66s CPU      0.80s WALL (      34 calls)
     PAW_pot      :      8.97s CPU      9.09s WALL (      35 calls)
     mix_rho      :      0.15s CPU      0.16s WALL (      33 calls)

     Called by c_bands:
     init_us_2    :      6.13s CPU      6.35s WALL (    3578 calls)
     rcgdiagg     :    536.95s CPU    541.43s WALL (      76 calls)
     wfcrot       :     11.81s CPU     12.00s WALL (      64 calls)

     Called by sum_band:
     sum_band:bec :      0.03s CPU      0.03s WALL (      66 calls)
     addusdens    :      0.56s CPU      0.93s WALL (      33 calls)

     Called by *cgdiagg:
     h_psi        :    273.89s CPU    276.46s WALL (   69594 calls)
     s_psi        :     89.74s CPU     90.61s WALL (  139124 calls)
     rdiaghg      :      0.96s CPU      0.98s WALL (      64 calls)

     Called by h_psi:
     h_psi:pot    :    221.60s CPU    223.70s WALL (   69594 calls)
     h_psi:calbec :     98.00s CPU     98.89s WALL (   69594 calls)
     vloc_psi     :     75.63s CPU     76.49s WALL (   69594 calls)
     add_vuspsi   :     47.50s CPU     47.93s WALL (   69594 calls)
     hs_1psi      :    313.69s CPU    316.51s WALL (   69530 calls)
     s_1psi       :    121.29s CPU    122.03s WALL (   69530 calls)

     General routines
     calbec       :    222.19s CPU    224.15s WALL (  189209 calls)
     fft          :      1.80s CPU      1.81s WALL (     574 calls)
     ffts         :      0.11s CPU      0.11s WALL (      66 calls)
     fftw         :     73.25s CPU     74.09s WALL (  163214 calls)
     fftc         :   1966.47s CPU   1976.76s WALL (  672280 calls)
     fftcw        :      3.57s CPU      3.66s WALL (    6874 calls)
 
     Parallel routines
     fft_scatt_xy :     34.11s CPU     34.32s WALL (  843008 calls)
     fft_scatt_yz :   1724.55s CPU   1733.69s WALL (  843008 calls)

     EXX routines
     exx_grid     :      0.00s CPU      0.00s WALL (       1 calls)
     exxinit      :      2.51s CPU      2.67s WALL (       7 calls)
     vexx         :  21615.63s CPU  21694.16s WALL (      14 calls)
     matcalc      :     44.12s CPU     44.54s WALL (   50005 calls)
     aceupdate    :      0.04s CPU      0.06s WALL (      14 calls)
     vexxace      :     52.27s CPU     52.79s WALL (   49965 calls)
     aceinit      :  21615.86s CPU  21694.42s WALL (      14 calls)

     EXX+US  routines
     becxx        :      0.01s CPU      0.01s WALL (       7 calls)
     addusxx      :   9473.55s CPU   9505.24s WALL (  672280 calls)
     newdxx       :   9212.85s CPU   9245.69s WALL (  672280 calls)
     qvan_init    :      0.08s CPU      0.16s WALL (      14 calls)
     nlxx_pot     :      8.58s CPU      8.84s WALL (    3430 calls)

     EXX+PAW routines
     PAW_newdxx   :    871.80s CPU    876.01s WALL (  672280 calls)
 
     PWSCF        :      6h 9m CPU      6h11m WALL

 
   This run was terminated on:   0: 9:59  22Sep2021            

=------------------------------------------------------------------------------=
   JOB DONE.
=------------------------------------------------------------------------------=
