
     Program PWSCF v.6.4.1 starts on  5Jun2021 at 11:56:24 

     This program is part of the open-source Quantum ESPRESSO suite
     for quantum simulation of materials; please cite
         "P. Giannozzi et al., J. Phys.:Condens. Matter 21 395502 (2009);
         "P. Giannozzi et al., J. Phys.:Condens. Matter 29 465901 (2017);
          URL http://www.quantum-espresso.org", 
     in publications or presentations arising from this work. More details at
     http://www.quantum-espresso.org/quote

     Parallel version (MPI), running on    16 processors

     MPI processes distributed on     1 nodes
     R & G space division:  proc/nbgrp/npool/nimage =      16
     Waiting for input...
     Reading input from standard input

     Current dimensions of program PWSCF are:
     Max number of different atomic species (ntypx) = 10
     Max number of k-points (npk) =  40000
     Max angular momentum in pseudopotentials (lmaxx) =  3
               file N.pbe-n-kjpaw_psl.1.0.0.UPF: wavefunction(s)  2S renormalized

     --------------------------------------------
     Parameters for DFT-D3 Dispersion Correction:
     --------------------------------------------
       Reference C6 values for interpolation: 

         atom   Coordination number   C6
         B          0.000           214.36
         B          0.971           150.74
         B          1.944           106.23
         B          2.913            62.89
         B          4.586            56.06
         N          0.000            50.54
         N          0.994            44.25
         N          2.014            39.35
         N          2.990            31.16

       Values used:

         atom   Coordination number  R0_AB[au]  C6      C8
         B          3.320            3.039     62.90   2506.37
         B          3.320            3.039     62.90   2506.37
         B          3.320            3.039     62.90   2506.37
         B          3.320            3.039     62.90   2506.37
         B          3.320            3.039     62.90   2506.37
         B          3.320            3.039     62.90   2506.37
         B          3.320            3.039     62.90   2506.37
         B          3.320            3.039     62.90   2506.37
         B          3.320            3.039     62.90   2506.37
         B          3.320            3.039     62.90   2506.37
         B          3.320            3.039     62.90   2506.37
         B          3.320            3.039     62.90   2506.37
         B          3.320            3.039     62.90   2506.37
         B          3.320            3.039     62.90   2506.37
         B          3.320            3.039     62.90   2506.37
         B          3.320            3.039     62.90   2506.37
         B          3.320            3.039     62.90   2506.37
         B          3.320            3.039     62.90   2506.37
         B          3.320            3.039     62.90   2506.37
         B          3.320            3.039     62.90   2506.37
         B          3.320            3.039     62.90   2506.37
         B          3.320            3.039     62.90   2506.37
         B          3.320            3.039     62.90   2506.37
         B          3.320            3.039     62.90   2506.37
         B          3.320            3.039     62.90   2506.37
         B          3.320            3.039     62.90   2506.37
         B          3.320            3.039     62.90   2506.37
         B          3.320            3.039     62.90   2506.37
         B          3.320            3.039     62.90   2506.37
         B          3.320            3.039     62.90   2506.37
         B          3.320            3.039     62.90   2506.37
         B          3.320            3.039     62.90   2506.37
         B          3.320            3.039     62.90   2506.37
         B          3.320            3.039     62.90   2506.37
         B          3.320            3.039     62.90   2506.37
         B          3.320            3.039     62.90   2506.37
         B          3.320            3.039     62.90   2506.37
         B          3.320            3.039     62.90   2506.37
         B          3.320            3.039     62.90   2506.37
         B          3.320            3.039     62.90   2506.37
         B          3.320            3.039     62.90   2506.37
         B          3.320            3.039     62.90   2506.37
         B          3.320            3.039     62.90   2506.37
         B          3.320            3.039     62.90   2506.37
         B          3.320            3.039     62.90   2506.37
         B          3.320            3.039     62.90   2506.37
         B          3.320            3.039     62.90   2506.37
         B          3.320            3.039     62.90   2506.37
         B          3.320            3.039     62.90   2506.37
         N          3.127            2.478     31.22    688.76
         N          3.127            2.478     31.22    688.76
         N          3.127            2.478     31.22    688.76
         N          3.127            2.478     31.22    688.76
         N          3.127            2.478     31.22    688.76
         N          3.127            2.478     31.22    688.76
         N          3.127            2.478     31.22    688.76
         N          3.127            2.478     31.22    688.76
         N          3.127            2.478     31.22    688.76
         N          3.127            2.478     31.22    688.76
         N          3.127            2.478     31.22    688.76
         N          3.127            2.478     31.22    688.76
         N          3.127            2.478     31.22    688.76
         N          3.127            2.478     31.22    688.76
         N          3.127            2.478     31.22    688.76
         N          3.127            2.478     31.22    688.76
         N          3.127            2.478     31.22    688.76
         N          3.127            2.478     31.22    688.76
         N          3.127            2.478     31.22    688.76
         N          3.127            2.478     31.22    688.76
         N          3.127            2.478     31.22    688.76
         N          3.127            2.478     31.22    688.76
         N          3.127            2.478     31.22    688.76
         N          3.127            2.478     31.22    688.76
         N          3.127            2.478     31.22    688.76
         N          3.127            2.478     31.22    688.76
         N          3.127            2.478     31.22    688.76
         N          3.127            2.478     31.22    688.76
         N          3.127            2.478     31.22    688.76
         N          3.127            2.478     31.22    688.76
         N          3.127            2.478     31.22    688.76
         N          3.127            2.478     31.22    688.76
         N          3.127            2.478     31.22    688.76
         N          3.127            2.478     31.22    688.76
         N          3.127            2.478     31.22    688.76
         N          3.127            2.478     31.22    688.76
         N          3.127            2.478     31.22    688.76
         N          3.127            2.478     31.22    688.76
         N          3.127            2.478     31.22    688.76
         N          3.127            2.478     31.22    688.76
         N          3.127            2.478     31.22    688.76
         N          3.127            2.478     31.22    688.76
         N          3.127            2.478     31.22    688.76
         N          3.127            2.478     31.22    688.76
         N          3.127            2.478     31.22    688.76
         N          3.127            2.478     31.22    688.76
         N          3.127            2.478     31.22    688.76
         N          3.127            2.478     31.22    688.76
         N          3.127            2.478     31.22    688.76

         Molecular C6 ( Ry / a.u.^6 ) =    434817.80


     gamma-point specific algorithms are used

     Subspace diagonalization in iterative solution of the eigenvalue problem:
     one sub-group per band group will be used
     scalapack distributed-memory algorithm (size of sub-group:  2*  2 procs)

     Found symmetry operation: I + ( -0.0000  0.1429  0.0000)
     This is a supercell, fractional translations are disabled
 
     Parallelization info
     --------------------
     sticks:   dense  smooth     PW     G-vecs:    dense   smooth      PW
     Min        2377     758    189               426589    77204    9645
     Max        2378     760    192               426598    77212    9656
     Sum       38047   12157   3049              6825527  1235337  154397
 


     bravais-lattice index     =            4
     lattice parameter (alat)  =      33.2346  a.u.
     unit-cell volume          =   36152.6937 (a.u.)^3
     number of atoms/cell      =           98
     number of atomic types    =            2
     number of electrons       =       392.00
     number of Kohn-Sham states=          196
     kinetic-energy cutoff     =      40.0000  Ry
     charge density cutoff     =     500.0000  Ry
     convergence threshold     =      1.0E-06
     mixing beta               =       0.7000
     number of iterations used =            8  plain     mixing
     Exchange-correlation      = SLA PW PBX PBC ( 1  4  3  4 0 0)
     Using LIBXC version       =    4   3   4
     nstep                     =           50


     celldm(1)=  33.234611  celldm(2)=   0.000000  celldm(3)=   1.137204
     celldm(4)=   0.000000  celldm(5)=   0.000000  celldm(6)=   0.000000

     crystal axes: (cart. coord. in units of alat)
               a(1) = (   1.000000   0.000000   0.000000 )  
               a(2) = (  -0.500000   0.866025   0.000000 )  
               a(3) = (   0.000000   0.000000   1.137204 )  

     reciprocal axes: (cart. coord. in units 2 pi/alat)
               b(1) = (  1.000000  0.577350  0.000000 )  
               b(2) = (  0.000000  1.154701  0.000000 )  
               b(3) = (  0.000000  0.000000  0.879350 )  


     PseudoPot. # 1 for B  read from file:
     ./pseudo/B.pbe-n-kjpaw_psl.1.0.0.UPF
     MD5 check sum: 8c825a5969375aca5c2c6ad5945b3059
     Pseudo is Projector augmented-wave + core cor, Zval =  3.0
     Generated using "atomic" code by A. Dal Corso v.6.3
     Shape of augmentation charge: PSQ
     Using radial grid of 1059 points,  4 beta functions with: 
                l(1) =   0
                l(2) =   0
                l(3) =   1
                l(4) =   1
     Q(r) pseudized with 0 coefficients 


     PseudoPot. # 2 for N  read from file:
     ./pseudo/N.pbe-n-kjpaw_psl.1.0.0.UPF
     MD5 check sum: 14c48229446f9f2d411169a3abcbc3fa
     Pseudo is Projector augmented-wave + core cor, Zval =  5.0
     Generated using "atomic" code by A. Dal Corso v.6.3
     Shape of augmentation charge: PSQ
     Using radial grid of 1085 points,  4 beta functions with: 
                l(1) =   0
                l(2) =   0
                l(3) =   1
                l(4) =   1
     Q(r) pseudized with 0 coefficients 


     atomic species   valence    mass     pseudopotential
        B              3.00    10.00000     B ( 1.00)
        N              5.00    14.00000     N ( 1.00)

     12 Sym. Ops. (no inversion) found



   Cartesian axes

     site n.     atom                  positions (alat units)
         1           B   tau(   1) = (   0.0000000   0.0824785   0.5686018  )
         2           B   tau(   2) = (  -0.0714285   0.2061963   0.5686018  )
         3           B   tau(   3) = (  -0.1428570   0.3299141   0.5686018  )
         4           B   tau(   4) = (  -0.2142860   0.4536328   0.5686018  )
         5           B   tau(   5) = (  -0.2857145   0.5773506   0.5686018  )
         6           B   tau(   6) = (  -0.3571430   0.7010683   0.5686018  )
         7           B   tau(   7) = (  -0.4285715   0.8247861   0.5686018  )
         8           B   tau(   8) = (   0.1428570   0.0824785   0.5686018  )
         9           B   tau(   9) = (   0.0714285   0.2061963   0.5686018  )
        10           B   tau(  10) = (   0.0000000   0.3299141   0.5686018  )
        11           B   tau(  11) = (  -0.0714290   0.4536328   0.5686018  )
        12           B   tau(  12) = (  -0.1428575   0.5773506   0.5686018  )
        13           B   tau(  13) = (  -0.2142860   0.7010683   0.5686018  )
        14           B   tau(  14) = (  -0.2857145   0.8247861   0.5686018  )
        15           B   tau(  15) = (   0.2857140   0.0824785   0.5686018  )
        16           B   tau(  16) = (   0.2142855   0.2061963   0.5686018  )
        17           B   tau(  17) = (   0.1428570   0.3299141   0.5686018  )
        18           B   tau(  18) = (   0.0714280   0.4536328   0.5686018  )
        19           B   tau(  19) = (  -0.0000005   0.5773506   0.5686018  )
        20           B   tau(  20) = (  -0.0714290   0.7010683   0.5686018  )
        21           B   tau(  21) = (  -0.1428575   0.8247861   0.5686018  )
        22           B   tau(  22) = (   0.4285710   0.0824785   0.5686018  )
        23           B   tau(  23) = (   0.3571425   0.2061963   0.5686018  )
        24           B   tau(  24) = (   0.2857140   0.3299141   0.5686018  )
        25           B   tau(  25) = (   0.2142850   0.4536328   0.5686018  )
        26           B   tau(  26) = (   0.1428565   0.5773506   0.5686018  )
        27           B   tau(  27) = (   0.0714280   0.7010683   0.5686018  )
        28           B   tau(  28) = (  -0.0000005   0.8247861   0.5686018  )
        29           B   tau(  29) = (   0.5714290   0.0824785   0.5686018  )
        30           B   tau(  30) = (   0.5000005   0.2061963   0.5686018  )
        31           B   tau(  31) = (   0.4285720   0.3299141   0.5686018  )
        32           B   tau(  32) = (   0.3571430   0.4536328   0.5686018  )
        33           B   tau(  33) = (   0.2857145   0.5773506   0.5686018  )
        34           B   tau(  34) = (   0.2142860   0.7010683   0.5686018  )
        35           B   tau(  35) = (   0.1428575   0.8247861   0.5686018  )
        36           B   tau(  36) = (   0.7142860   0.0824785   0.5686018  )
        37           B   tau(  37) = (   0.6428575   0.2061963   0.5686018  )
        38           B   tau(  38) = (   0.5714290   0.3299141   0.5686018  )
        39           B   tau(  39) = (   0.5000000   0.4536328   0.5686018  )
        40           B   tau(  40) = (   0.4285715   0.5773506   0.5686018  )
        41           B   tau(  41) = (   0.3571430   0.7010683   0.5686018  )
        42           B   tau(  42) = (   0.2857145   0.8247861   0.5686018  )
        43           B   tau(  43) = (   0.8571430   0.0824785   0.5686018  )
        44           B   tau(  44) = (   0.7857145   0.2061963   0.5686018  )
        45           B   tau(  45) = (   0.7142860   0.3299141   0.5686018  )
        46           B   tau(  46) = (   0.6428570   0.4536328   0.5686018  )
        47           B   tau(  47) = (   0.5714285   0.5773506   0.5686018  )
        48           B   tau(  48) = (   0.5000000   0.7010683   0.5686018  )
        49           B   tau(  49) = (   0.4285715   0.8247861   0.5686018  )
        50           N   tau(  50) = (   0.0714285   0.0412393   0.5686018  )
        51           N   tau(  51) = (   0.0000000   0.1649571   0.5686018  )
        52           N   tau(  52) = (  -0.0714285   0.2886748   0.5686018  )
        53           N   tau(  53) = (  -0.1428570   0.4123926   0.5686018  )
        54           N   tau(  54) = (  -0.2142860   0.5361113   0.5686018  )
        55           N   tau(  55) = (  -0.2857145   0.6598291   0.5686018  )
        56           N   tau(  56) = (  -0.3571430   0.7835469   0.5686018  )
        57           N   tau(  57) = (   0.2142855   0.0412393   0.5686018  )
        58           N   tau(  58) = (   0.1428570   0.1649571   0.5686018  )
        59           N   tau(  59) = (   0.0714285   0.2886748   0.5686018  )
        60           N   tau(  60) = (   0.0000000   0.4123926   0.5686018  )
        61           N   tau(  61) = (  -0.0714290   0.5361113   0.5686018  )
        62           N   tau(  62) = (  -0.1428575   0.6598291   0.5686018  )
        63           N   tau(  63) = (  -0.2142860   0.7835469   0.5686018  )
        64           N   tau(  64) = (   0.3571425   0.0412393   0.5686018  )
        65           N   tau(  65) = (   0.2857140   0.1649571   0.5686018  )
        66           N   tau(  66) = (   0.2142855   0.2886748   0.5686018  )
        67           N   tau(  67) = (   0.1428570   0.4123926   0.5686018  )
        68           N   tau(  68) = (   0.0714280   0.5361113   0.5686018  )
        69           N   tau(  69) = (  -0.0000005   0.6598291   0.5686018  )
        70           N   tau(  70) = (  -0.0714290   0.7835469   0.5686018  )
        71           N   tau(  71) = (   0.5000005   0.0412393   0.5686018  )
        72           N   tau(  72) = (   0.4285720   0.1649571   0.5686018  )
        73           N   tau(  73) = (   0.3571435   0.2886748   0.5686018  )
        74           N   tau(  74) = (   0.2857150   0.4123926   0.5686018  )
        75           N   tau(  75) = (   0.2142860   0.5361113   0.5686018  )
        76           N   tau(  76) = (   0.1428575   0.6598291   0.5686018  )
        77           N   tau(  77) = (   0.0714290   0.7835469   0.5686018  )
        78           N   tau(  78) = (   0.6428575   0.0412393   0.5686018  )
        79           N   tau(  79) = (   0.5714290   0.1649571   0.5686018  )
        80           N   tau(  80) = (   0.5000005   0.2886748   0.5686018  )
        81           N   tau(  81) = (   0.4285720   0.4123926   0.5686018  )
        82           N   tau(  82) = (   0.3571430   0.5361113   0.5686018  )
        83           N   tau(  83) = (   0.2857145   0.6598291   0.5686018  )
        84           N   tau(  84) = (   0.2142860   0.7835469   0.5686018  )
        85           N   tau(  85) = (   0.7857145   0.0412393   0.5686018  )
        86           N   tau(  86) = (   0.7142860   0.1649571   0.5686018  )
        87           N   tau(  87) = (   0.6428575   0.2886748   0.5686018  )
        88           N   tau(  88) = (   0.5714290   0.4123926   0.5686018  )
        89           N   tau(  89) = (   0.5000000   0.5361113   0.5686018  )
        90           N   tau(  90) = (   0.4285715   0.6598291   0.5686018  )
        91           N   tau(  91) = (   0.3571430   0.7835469   0.5686018  )
        92           N   tau(  92) = (   0.9285715   0.0412393   0.5686018  )
        93           N   tau(  93) = (   0.8571430   0.1649571   0.5686018  )
        94           N   tau(  94) = (   0.7857145   0.2886748   0.5686018  )
        95           N   tau(  95) = (   0.7142860   0.4123926   0.5686018  )
        96           N   tau(  96) = (   0.6428570   0.5361113   0.5686018  )
        97           N   tau(  97) = (   0.5714285   0.6598291   0.5686018  )
        98           N   tau(  98) = (   0.5000000   0.7835469   0.5686018  )

     number of k points=     1
                       cart. coord. in units 2pi/alat
        k(    1) = (   0.0000000   0.0000000   0.0000000), wk =   2.0000000

     Dense  grid:  3412764 G-vectors     FFT dimensions: ( 240, 240, 270)

     Smooth grid:   617669 G-vectors     FFT dimensions: ( 135, 135, 160)

     Estimated max dynamical RAM per process >       1.30 GB

     Estimated total dynamical RAM >      20.88 GB

     Initial potential from superposition of free atoms

     starting charge  391.98580, renormalised to  392.00000

     negative rho (up, down):  4.263E-03 0.000E+00
     Starting wfcs are  392 randomized atomic wfcs
     Checking if some PAW data can be deallocated... 

     total cpu time spent up to now is       36.5 secs

     Self-consistent Calculation

     iteration #  1     ecut=    40.00 Ry     beta= 0.70
     CG style diagonalization
     ethr =  1.00E-02,  avg # of iterations =  3.0

     negative rho (up, down):  4.417E-03 0.000E+00

     total cpu time spent up to now is      102.9 secs

     total energy              =   -1946.39112785 Ry
     Harris-Foulkes estimate   =   -1960.07607182 Ry
     estimated scf accuracy    <      20.23882137 Ry

     iteration #  2     ecut=    40.00 Ry     beta= 0.70
     CG style diagonalization
     ethr =  5.16E-03,  avg # of iterations =  4.2

     negative rho (up, down):  1.638E-02 0.000E+00

     total cpu time spent up to now is      174.8 secs

     total energy              =   -1951.15095157 Ry
     Harris-Foulkes estimate   =   -1957.11610252 Ry
     estimated scf accuracy    <      11.60091371 Ry

     iteration #  3     ecut=    40.00 Ry     beta= 0.70
     CG style diagonalization
     ethr =  2.96E-03,  avg # of iterations =  4.0

     negative rho (up, down):  7.830E-03 0.000E+00

     total cpu time spent up to now is      242.3 secs

     total energy              =   -1953.47405268 Ry
     Harris-Foulkes estimate   =   -1953.49378611 Ry
     estimated scf accuracy    <       0.08711953 Ry

     iteration #  4     ecut=    40.00 Ry     beta= 0.70
     CG style diagonalization
     ethr =  2.22E-05,  avg # of iterations =  4.5

     negative rho (up, down):  9.372E-03 0.000E+00

     total cpu time spent up to now is      320.3 secs

     total energy              =   -1953.57048170 Ry
     Harris-Foulkes estimate   =   -1953.58176847 Ry
     estimated scf accuracy    <       0.04681011 Ry

     iteration #  5     ecut=    40.00 Ry     beta= 0.70
     CG style diagonalization
     ethr =  1.19E-05,  avg # of iterations =  3.0

     negative rho (up, down):  7.913E-03 0.000E+00

     total cpu time spent up to now is      369.6 secs

     total energy              =   -1953.55799369 Ry
     Harris-Foulkes estimate   =   -1953.57125578 Ry
     estimated scf accuracy    <       0.02441866 Ry

     iteration #  6     ecut=    40.00 Ry     beta= 0.70
     CG style diagonalization
     ethr =  6.23E-06,  avg # of iterations =  4.2

     negative rho (up, down):  7.754E-03 0.000E+00

     total cpu time spent up to now is      440.4 secs

     total energy              =   -1953.56531289 Ry
     Harris-Foulkes estimate   =   -1953.56804076 Ry
     estimated scf accuracy    <       0.00703066 Ry

     iteration #  7     ecut=    40.00 Ry     beta= 0.70
     CG style diagonalization
     ethr =  1.79E-06,  avg # of iterations =  3.1

     negative rho (up, down):  7.624E-03 0.000E+00

     total cpu time spent up to now is      492.2 secs

     total energy              =   -1953.56532343 Ry
     Harris-Foulkes estimate   =   -1953.56584460 Ry
     estimated scf accuracy    <       0.00111864 Ry

     iteration #  8     ecut=    40.00 Ry     beta= 0.70
     CG style diagonalization
     ethr =  2.85E-07,  avg # of iterations =  4.4

     negative rho (up, down):  7.630E-03 0.000E+00

     total cpu time spent up to now is      566.5 secs

     total energy              =   -1953.56574013 Ry
     Harris-Foulkes estimate   =   -1953.56575223 Ry
     estimated scf accuracy    <       0.00003742 Ry

     iteration #  9     ecut=    40.00 Ry     beta= 0.70
     CG style diagonalization
     ethr =  9.55E-09,  avg # of iterations =  3.2

     negative rho (up, down):  7.648E-03 0.000E+00

     total cpu time spent up to now is      618.5 secs

     total energy              =   -1953.56574070 Ry
     Harris-Foulkes estimate   =   -1953.56574293 Ry
     estimated scf accuracy    <       0.00001199 Ry

     iteration # 10     ecut=    40.00 Ry     beta= 0.70
     CG style diagonalization
     ethr =  3.06E-09,  avg # of iterations =  3.1

     negative rho (up, down):  7.654E-03 0.000E+00

     total cpu time spent up to now is      669.5 secs

     total energy              =   -1953.56573924 Ry
     Harris-Foulkes estimate   =   -1953.56574144 Ry
     estimated scf accuracy    <       0.00000511 Ry

     iteration # 11     ecut=    40.00 Ry     beta= 0.70
     CG style diagonalization
     ethr =  1.30E-09,  avg # of iterations =  4.1

     negative rho (up, down):  7.654E-03 0.000E+00

     total cpu time spent up to now is      739.3 secs

     End of self-consistent calculation

          k = 0.0000 0.0000 0.0000 ( 77199 PWs)   bands (ev):

   -21.6930 -21.3067 -21.3067 -21.3067 -21.3066 -21.3066 -21.3066 -20.5688
   -20.5688 -20.5688 -20.5688 -20.5688 -20.5687 -20.2264 -20.2264 -20.2264
   -20.2263 -20.2263 -20.2263 -19.3036 -19.3036 -19.3036 -19.3036 -19.3036
   -19.3036 -19.3035 -19.3035 -19.3035 -19.3035 -19.3035 -19.3035 -18.9087
   -18.9087 -18.9086 -18.9086 -18.9086 -18.9086 -18.4541 -18.4540 -18.4540
   -18.4540 -18.4540 -18.4539 -18.2906 -18.2906 -18.2905 -18.2905 -18.2905
   -18.2905 -12.6945 -12.6945 -12.6944 -12.6944 -12.6944 -12.6944 -12.4926
   -12.4926 -12.4925 -12.4925 -12.4925 -12.4925 -12.0032 -12.0032 -12.0031
   -12.0031 -12.0031 -12.0031 -11.3090 -11.3090 -11.3090 -11.3090 -11.3090
   -11.3089 -11.3089 -11.3089 -11.3089 -11.3089 -11.3089 -11.3088 -10.6483
   -10.6483 -10.6482 -10.6482 -10.6482 -10.6482  -9.9395  -9.9395  -9.9395
    -9.9395  -9.9395  -9.9395  -9.2758  -9.2360  -9.2360  -9.2359  -9.2359
    -9.2359  -9.2359  -8.8156  -8.8156  -8.8156  -8.8156  -8.8156  -8.8156
    -8.7686  -8.7686  -8.7686  -8.7685  -8.7685  -8.7685  -8.7685  -8.7685
    -8.7685  -8.7685  -8.7685  -8.7685  -8.7555  -8.7554  -8.7554  -8.7554
    -8.7553  -8.7553  -8.0951  -8.0951  -8.0951  -8.0951  -8.0951  -8.0951
    -7.7531  -7.7531  -7.7531  -7.7531  -7.7531  -7.7530  -7.4186  -7.4186
    -7.4186  -7.4186  -7.4186  -7.4186  -7.3125  -7.3125  -7.3125  -7.3124
    -7.3124  -7.3124  -7.2816  -7.2816  -7.2815  -7.2815  -7.2815  -7.2815
    -6.9217  -6.9216  -6.9216  -6.9216  -6.9215  -6.9215  -6.0988  -6.0988
    -6.0988  -6.0987  -6.0987  -6.0987  -5.9841  -5.9841  -5.9841  -5.9841
    -5.9841  -5.9841  -5.9840  -5.9840  -5.9840  -5.9840  -5.9840  -5.9840
    -5.4170  -5.4169  -5.3923  -5.3923  -5.3923  -5.3923  -5.3922  -5.3922
    -4.6962  -4.6962  -4.6961  -4.6961  -4.6961  -4.6961  -4.4522  -4.4522
    -4.4521  -4.4521  -4.4521  -4.4521

     highest occupied level (ev):    -4.4521

!    total energy              =   -1953.56574050 Ry
     Harris-Foulkes estimate   =   -1953.56574053 Ry
     estimated scf accuracy    <       0.00000004 Ry

     total all-electron energy =     -7810.934869 Ry

     The total energy is the sum of the following terms:

     one-electron contribution =  -10729.09127101 Ry
     hartree contribution      =    5451.22677228 Ry
     xc contribution           =    -431.57758920 Ry
     ewald contribution        =    4401.97518603 Ry
     DFT-D3 Dispersion         =      -0.27009534 Ry
     one-center paw contrib.   =    -645.82874326 Ry

     convergence has been achieved in  11 iterations

     negative rho (up, down):  7.654E-03 0.000E+00

     Forces acting on atoms (cartesian axes, Ry/au):

     atom    1 type  1   force =    -0.00000000    0.00021762    0.00000000
     atom    2 type  1   force =    -0.00005815    0.00008541    0.00000000
     atom    3 type  1   force =     0.00015353   -0.00018025    0.00000000
     atom    4 type  1   force =     0.00010580    0.00006109    0.00000000
     atom    5 type  1   force =    -0.00007934    0.00022309   -0.00000000
     atom    6 type  1   force =     0.00004489   -0.00009306    0.00000000
     atom    7 type  1   force =     0.00018846   -0.00010881   -0.00000000
     atom    8 type  1   force =     0.00024416    0.00014096   -0.00000000
     atom    9 type  1   force =     0.00005815    0.00008541    0.00000000
     atom   10 type  1   force =     0.00000000   -0.00002404    0.00000000
     atom   11 type  1   force =     0.00021055    0.00006397   -0.00000000
     atom   12 type  1   force =     0.00016067    0.00015036   -0.00000000
     atom   13 type  1   force =    -0.00002082    0.00001202    0.00000000
     atom   14 type  1   force =     0.00010304    0.00000765    0.00000000
     atom   15 type  1   force =    -0.00010778    0.00009711    0.00000000
     atom   16 type  1   force =     0.00003021   -0.00014190    0.00000000
     atom   17 type  1   force =    -0.00015353   -0.00018025    0.00000000
     atom   18 type  1   force =    -0.00021055    0.00006397    0.00000000
     atom   19 type  1   force =     0.00000000   -0.00000000    0.00000000
     atom   20 type  1   force =    -0.00004988   -0.00021433   -0.00000000
     atom   21 type  1   force =    -0.00023287   -0.00004284   -0.00000000
     atom   22 type  1   force =    -0.00018442    0.00019838    0.00000000
     atom   23 type  1   force =    -0.00005991   -0.00003459    0.00000000
     atom   24 type  1   force =     0.00007959   -0.00025890    0.00000000
     atom   25 type  1   force =    -0.00010580    0.00006109    0.00000000
     atom   26 type  1   force =    -0.00016067    0.00015036    0.00000000
     atom   27 type  1   force =     0.00004988   -0.00021433    0.00000000
     atom   28 type  1   force =     0.00000000   -0.00012217    0.00000000
     atom   29 type  1   force =     0.00018442    0.00019838   -0.00000000
     atom   30 type  1   force =     0.00000000    0.00014159    0.00000000
     atom   31 type  1   force =     0.00012262   -0.00007080    0.00000000
     atom   32 type  1   force =     0.00026401    0.00006052    0.00000000
     atom   33 type  1   force =     0.00007934    0.00022309    0.00000000
     atom   34 type  1   force =     0.00002082    0.00001202    0.00000000
     atom   35 type  1   force =     0.00023287   -0.00004284    0.00000000
     atom   36 type  1   force =     0.00010778    0.00009711   -0.00000000
     atom   37 type  1   force =     0.00005991   -0.00003459    0.00000000
     atom   38 type  1   force =    -0.00012262   -0.00007080    0.00000000
     atom   39 type  1   force =     0.00000000    0.00006918    0.00000000
     atom   40 type  1   force =     0.00013799    0.00004479    0.00000000
     atom   41 type  1   force =    -0.00004489   -0.00009306    0.00000000
     atom   42 type  1   force =    -0.00010304    0.00000765    0.00000000
     atom   43 type  1   force =    -0.00024416    0.00014096    0.00000000
     atom   44 type  1   force =    -0.00003021   -0.00014190    0.00000000
     atom   45 type  1   force =    -0.00007959   -0.00025890   -0.00000000
     atom   46 type  1   force =    -0.00026401    0.00006052    0.00000000
     atom   47 type  1   force =    -0.00013799    0.00004479    0.00000000
     atom   48 type  1   force =     0.00000000   -0.00028193    0.00000000
     atom   49 type  1   force =    -0.00018846   -0.00010881    0.00000000
     atom   50 type  2   force =     0.00001236    0.00000713    0.00000000
     atom   51 type  2   force =     0.00000000    0.00002203    0.00000000
     atom   52 type  2   force =     0.00001345   -0.00000165   -0.00000000
     atom   53 type  2   force =     0.00002117    0.00000782    0.00000000
     atom   54 type  2   force =     0.00001736    0.00001442   -0.00000000
     atom   55 type  2   force =     0.00000530    0.00001247    0.00000000
     atom   56 type  2   force =     0.00001908   -0.00001101    0.00000000
     atom   57 type  2   force =     0.00000750   -0.00000474    0.00000000
     atom   58 type  2   force =    -0.00000036    0.00000887    0.00000000
     atom   59 type  2   force =    -0.00001345   -0.00000165    0.00000000
     atom   60 type  2   force =     0.00000000    0.00000529   -0.00000000
     atom   61 type  2   force =     0.00000843    0.00000487    0.00000000
     atom   62 type  2   force =     0.00000458   -0.00000264   -0.00000000
     atom   63 type  2   force =    -0.00000815   -0.00001082   -0.00000000
     atom   64 type  2   force =    -0.00001416    0.00000110    0.00000000
     atom   65 type  2   force =     0.00000102    0.00000059   -0.00000000
     atom   66 type  2   force =    -0.00000613   -0.00001281    0.00000000
     atom   67 type  2   force =    -0.00002117    0.00000782    0.00000000
     atom   68 type  2   force =    -0.00000843    0.00000487    0.00000000
     atom   69 type  2   force =     0.00000000   -0.00000974    0.00000000
     atom   70 type  2   force =    -0.00000381   -0.00002225   -0.00000000
     atom   71 type  2   force =    -0.00000000   -0.00000213    0.00000000
     atom   72 type  2   force =    -0.00001075    0.00001054    0.00000000
     atom   73 type  2   force =     0.00000375   -0.00001458    0.00000000
     atom   74 type  2   force =    -0.00000185    0.00000107   -0.00000000
     atom   75 type  2   force =    -0.00001736    0.00001442    0.00000000
     atom   76 type  2   force =    -0.00000458   -0.00000264    0.00000000
     atom   77 type  2   force =     0.00000381   -0.00002225   -0.00000000
     atom   78 type  2   force =     0.00001416    0.00000110   -0.00000000
     atom   79 type  2   force =     0.00001075    0.00001054    0.00000000
     atom   80 type  2   force =     0.00000000    0.00000000    0.00000000
     atom   81 type  2   force =     0.00001450    0.00000404   -0.00000000
     atom   82 type  2   force =     0.00000803    0.00001171   -0.00000000
     atom   83 type  2   force =    -0.00000530    0.00001247    0.00000000
     atom   84 type  2   force =     0.00000815   -0.00001082   -0.00000000
     atom   85 type  2   force =    -0.00000750   -0.00000474    0.00000000
     atom   86 type  2   force =    -0.00000102    0.00000059   -0.00000000
     atom   87 type  2   force =    -0.00000375   -0.00001458    0.00000000
     atom   88 type  2   force =    -0.00001450    0.00000404   -0.00000000
     atom   89 type  2   force =     0.00000000   -0.00000118    0.00000000
     atom   90 type  2   force =    -0.00000786   -0.00000412    0.00000000
     atom   91 type  2   force =    -0.00001908   -0.00001101   -0.00000000
     atom   92 type  2   force =    -0.00001236    0.00000713    0.00000000
     atom   93 type  2   force =     0.00000036    0.00000887   -0.00000000
     atom   94 type  2   force =     0.00000613   -0.00001281    0.00000000
     atom   95 type  2   force =     0.00000185    0.00000107   -0.00000000
     atom   96 type  2   force =    -0.00000803    0.00001171    0.00000000
     atom   97 type  2   force =     0.00000786   -0.00000412    0.00000000
     atom   98 type  2   force =    -0.00000000   -0.00001427   -0.00000000

     Total force =     0.001330     Total SCF correction =     0.000292
     SCF correction compared to forces is large: reduce conv_thr to get better values


     Computing stress (Cartesian axis) and pressure


     negative rho (up, down):  7.654E-03 0.000E+00
          total   stress  (Ry/bohr**3)                   (kbar)     P=   -1.73
  -0.00000801   0.00000000   0.00000000         -1.18      0.00      0.00
   0.00000000  -0.00000801   0.00000000          0.00     -1.18      0.00
   0.00000000   0.00000000  -0.00001924          0.00      0.00     -2.83


     BFGS Geometry Optimization

     number of scf cycles    =   1
     number of bfgs steps    =   0

     enthalpy new            =   -1953.5657405037 Ry

     new trust radius        =       0.0076150434 bohr
     new conv_thr            =       0.0000010000 Ry

     new unit-cell volume =  36138.21603 a.u.^3 (  5355.13104 Ang^3 )
     density =      0.36466 g/cm^3

CELL_PARAMETERS (alat= 33.23461096)
   0.999799750   0.000000000   0.000000000
  -0.499899875   0.865851982   0.000000000
   0.000000000   0.000000000   1.137203616

ATOMIC_POSITIONS (crystal)
B        0.047622780   0.095245561   0.500000000
B        0.047618734   0.238097967   0.500000000
B        0.047620488   0.380945737   0.500000000
B        0.047623245   0.523812122   0.500000000
B        0.047620488   0.666674751   0.500000000
B        0.047618734   0.809520767   0.500000000
B        0.047622780   0.952377220   0.500000000
B        0.190485795   0.095242898   0.500000000
B        0.190479233   0.238097967   0.500000000
B        0.190475582   0.380951165   0.500000000
B        0.190483447   0.523812222   0.500000000
B        0.190483447   0.666672224   0.500000000
B        0.190475582   0.809524418   0.500000000
B        0.190479233   0.952381266   0.500000000
B        0.333331444   0.095241374   0.500000000
B        0.333331444   0.238090070   0.500000000
B        0.333325249   0.380945737   0.500000000
B        0.333327776   0.523812222   0.500000000
B        0.333333000   0.666667000   0.500000000
B        0.333327776   0.809516553   0.500000000
B        0.333325249   0.952379512   0.500000000
B        0.476187897   0.095244892   0.500000000
B        0.476187596   0.238093798   0.500000000
B        0.476187897   0.380943005   0.500000000
B        0.476187878   0.523812122   0.500000000
B        0.476187778   0.666672224   0.500000000
B        0.476187778   0.809516553   0.500000000
B        0.476187878   0.952376755   0.500000000
B        0.619056995   0.095244892   0.500000000
B        0.619050460   0.238099920   0.500000000
B        0.619050460   0.380949540   0.500000000
B        0.619056995   0.523812103   0.500000000
B        0.619054263   0.666674751   0.500000000
B        0.619048835   0.809524418   0.500000000
B        0.619054263   0.952379512   0.500000000
B        0.761909930   0.095241374   0.500000000
B        0.761906202   0.238093798   0.500000000
B        0.761900080   0.380949540   0.500000000
B        0.761906202   0.523812404   0.500000000
B        0.761909930   0.666668556   0.500000000
B        0.761902033   0.809520767   0.500000000
B        0.761902033   0.952381266   0.500000000
B        0.904757102   0.095242898   0.500000000
B        0.904758626   0.238090070   0.500000000
B        0.904755108   0.380943005   0.500000000
B        0.904755108   0.523812103   0.500000000
B        0.904758626   0.666668556   0.500000000
B        0.904757102   0.809514205   0.500000000
B        0.904754439   0.952377220   0.500000000
N        0.095238496   0.047619248   0.500000000
N        0.095238383   0.190476765   0.500000000
N        0.095238376   0.333332943   0.500000000
N        0.095238773   0.476190272   0.500000000
N        0.095238773   0.619048501   0.500000000
N        0.095238376   0.761905433   0.500000000
N        0.095238383   0.904761617   0.500000000
N        0.238095143   0.047618835   0.500000000
N        0.238095143   0.190476308   0.500000000
N        0.238094567   0.333332943   0.500000000
N        0.238095092   0.476190184   0.500000000
N        0.238095338   0.619048169   0.500000000
N        0.238095092   0.761904908   0.500000000
N        0.238094567   0.904761624   0.500000000
N        0.380951593   0.047619038   0.500000000
N        0.380952041   0.190476021   0.500000000
N        0.380951593   0.333332555   0.500000000
N        0.380951499   0.476190272   0.500000000
N        0.380951831   0.619048169   0.500000000
N        0.380951831   0.761904662   0.500000000
N        0.380951499   0.904761227   0.500000000
N        0.523809963   0.047618926   0.500000000
N        0.523809860   0.190476366   0.500000000
N        0.523809860   0.333332493   0.500000000
N        0.523809963   0.476190037   0.500000000
N        0.523809728   0.619048501   0.500000000
N        0.523809816   0.761904908   0.500000000
N        0.523809728   0.904761227   0.500000000
N        0.666667445   0.047619038   0.500000000
N        0.666667507   0.190476366   0.500000000
N        0.666667000   0.333333000   0.500000000
N        0.666667507   0.476190140   0.500000000
N        0.666667445   0.619048407   0.500000000
N        0.666667057   0.761905433   0.500000000
N        0.666667057   0.904761624   0.500000000
N        0.809523692   0.047618835   0.500000000
N        0.809523979   0.190476021   0.500000000
N        0.809523634   0.333332493   0.500000000
N        0.809523634   0.476190140   0.500000000
N        0.809523979   0.619047959   0.500000000
N        0.809523692   0.761904857   0.500000000
N        0.809523235   0.904761617   0.500000000
N        0.952380752   0.047619248   0.500000000
N        0.952381165   0.190476308   0.500000000
N        0.952380962   0.333332555   0.500000000
N        0.952381074   0.476190037   0.500000000
N        0.952380962   0.619048407   0.500000000
N        0.952381165   0.761904857   0.500000000
N        0.952380752   0.904761504   0.500000000



     Writing output data file hBN.save/
     Message from routine punch:
     wavefunctions written to file
     NEW-OLD atomic charge density approx. for the potential

     negative rho (up, down):  7.659E-03 0.000E+00
     extrapolated charge  391.84296, renormalised to  392.00000

     total cpu time spent up to now is      867.2 secs

     Self-consistent Calculation

     iteration #  1     ecut=    40.00 Ry     beta= 0.70
     CG style diagonalization
     ethr =  1.00E-06,  avg # of iterations =  2.2

     Threshold (ethr) on eigenvalues was too large:
     Diagonalizing with lowered threshold

     CG style diagonalization
     ethr =  5.47E-08,  avg # of iterations =  2.0

     negative rho (up, down):  7.683E-03 0.000E+00

     total cpu time spent up to now is      959.5 secs

     total energy              =   -1953.56545892 Ry
     Harris-Foulkes estimate   =   -1957.73507334 Ry
     estimated scf accuracy    <       0.00025160 Ry

     iteration #  2     ecut=    40.00 Ry     beta= 0.70
     CG style diagonalization
     ethr =  6.42E-08,  avg # of iterations =  5.2

     negative rho (up, down):  7.665E-03 0.000E+00

     total cpu time spent up to now is     1050.0 secs

     total energy              =   -1953.56581046 Ry
     Harris-Foulkes estimate   =   -1953.56607188 Ry
     estimated scf accuracy    <       0.00072645 Ry

     iteration #  3     ecut=    40.00 Ry     beta= 0.70
     CG style diagonalization
     ethr =  6.42E-08,  avg # of iterations =  4.0

     negative rho (up, down):  7.662E-03 0.000E+00

     total cpu time spent up to now is     1117.5 secs

     total energy              =   -1953.56584090 Ry
     Harris-Foulkes estimate   =   -1953.56586828 Ry
     estimated scf accuracy    <       0.00009796 Ry

     iteration #  4     ecut=    40.00 Ry     beta= 0.70
     CG style diagonalization
     ethr =  2.50E-08,  avg # of iterations =  3.2

     negative rho (up, down):  7.659E-03 0.000E+00

     total cpu time spent up to now is     1168.9 secs

     total energy              =   -1953.56583755 Ry
     Harris-Foulkes estimate   =   -1953.56584633 Ry
     estimated scf accuracy    <       0.00002926 Ry

     iteration #  5     ecut=    40.00 Ry     beta= 0.70
     CG style diagonalization
     ethr =  7.46E-09,  avg # of iterations =  3.1

     negative rho (up, down):  7.657E-03 0.000E+00

     total cpu time spent up to now is     1220.2 secs

     total energy              =   -1953.56583735 Ry
     Harris-Foulkes estimate   =   -1953.56584018 Ry
     estimated scf accuracy    <       0.00000723 Ry

     iteration #  6     ecut=    40.00 Ry     beta= 0.70
     CG style diagonalization
     ethr =  1.84E-09,  avg # of iterations =  3.8

     negative rho (up, down):  7.659E-03 0.000E+00

     total cpu time spent up to now is     1284.1 secs

     End of self-consistent calculation

          k = 0.0000 0.0000 0.0000 ( 77199 PWs)   bands (ev):

   -21.6946 -21.3084 -21.3084 -21.3084 -21.3076 -21.3076 -21.3076 -20.5698
   -20.5698 -20.5698 -20.5698 -20.5698 -20.5698 -20.2280 -20.2276 -20.2276
   -20.2267 -20.2267 -20.2263 -19.3043 -19.3043 -19.3042 -19.3042 -19.3042
   -19.3042 -19.3034 -19.3034 -19.3034 -19.3034 -19.3034 -19.3034 -18.9086
   -18.9086 -18.9086 -18.9086 -18.9086 -18.9086 -18.4542 -18.4542 -18.4539
   -18.4539 -18.4527 -18.4527 -18.2900 -18.2900 -18.2900 -18.2900 -18.2900
   -18.2900 -12.6954 -12.6954 -12.6948 -12.6948 -12.6943 -12.6943 -12.4927
   -12.4926 -12.4926 -12.4926 -12.4926 -12.4926 -12.0037 -12.0037 -12.0037
   -12.0037 -12.0037 -12.0037 -11.3088 -11.3088 -11.3088 -11.3088 -11.3087
   -11.3087 -11.3082 -11.3082 -11.3081 -11.3081 -11.3081 -11.3081 -10.6475
   -10.6475 -10.6475 -10.6475 -10.6474 -10.6474  -9.9391  -9.9387  -9.9387
    -9.9379  -9.9379  -9.9375  -9.2771  -9.2355  -9.2355  -9.2348  -9.2348
    -9.2348  -9.2348  -8.8139  -8.8139  -8.8139  -8.8139  -8.8139  -8.8139
    -8.7680  -8.7680  -8.7680  -8.7680  -8.7679  -8.7679  -8.7670  -8.7669
    -8.7669  -8.7669  -8.7669  -8.7669  -8.7567  -8.7567  -8.7567  -8.7560
    -8.7560  -8.7560  -8.0940  -8.0939  -8.0939  -8.0939  -8.0939  -8.0939
    -7.7535  -7.7535  -7.7535  -7.7535  -7.7535  -7.7535  -7.4170  -7.4170
    -7.4170  -7.4170  -7.4170  -7.4170  -7.3115  -7.3111  -7.3111  -7.3105
    -7.3105  -7.3102  -7.2824  -7.2821  -7.2820  -7.2813  -7.2813  -7.2809
    -6.9197  -6.9197  -6.9197  -6.9189  -6.9189  -6.9188  -6.0971  -6.0971
    -6.0971  -6.0958  -6.0958  -6.0958  -5.9838  -5.9838  -5.9838  -5.9838
    -5.9838  -5.9838  -5.9831  -5.9831  -5.9831  -5.9831  -5.9831  -5.9831
    -5.4143  -5.4142  -5.3913  -5.3913  -5.3913  -5.3912  -5.3912  -5.3912
    -4.6950  -4.6950  -4.6949  -4.6949  -4.6939  -4.6939  -4.4506  -4.4506
    -4.4505  -4.4505  -4.4505  -4.4505

     highest occupied level (ev):    -4.4505

!    total energy              =   -1953.56583858 Ry
     Harris-Foulkes estimate   =   -1953.56583883 Ry
     estimated scf accuracy    <       0.00000029 Ry

     total all-electron energy =     -7810.934967 Ry

     The total energy is the sum of the following terms:

     one-electron contribution =  -10733.35509670 Ry
     hartree contribution      =    5453.37467447 Ry
     xc contribution           =    -431.61676493 Ry
     ewald contribution        =    4404.13055165 Ry
     DFT-D3 Dispersion         =      -0.27017528 Ry
     one-center paw contrib.   =    -645.82902778 Ry

     convergence has been achieved in   6 iterations

     negative rho (up, down):  7.659E-03 0.000E+00

     Forces acting on atoms (cartesian axes, Ry/au):

     atom    1 type  1   force =    -0.00000000   -0.00004475    0.00000000
     atom    2 type  1   force =     0.00001770   -0.00001487   -0.00000000
     atom    3 type  1   force =    -0.00002890    0.00004891    0.00000000
     atom    4 type  1   force =    -0.00001296   -0.00000748   -0.00000000
     atom    5 type  1   force =     0.00002791   -0.00004948   -0.00000000
     atom    6 type  1   force =    -0.00000403    0.00002276    0.00000000
     atom    7 type  1   force =    -0.00003876    0.00002238    0.00000000
     atom    8 type  1   force =    -0.00005662   -0.00003269   -0.00000000
     atom    9 type  1   force =    -0.00001770   -0.00001487    0.00000000
     atom   10 type  1   force =     0.00000000    0.00001355    0.00000000
     atom   11 type  1   force =    -0.00004550   -0.00000612   -0.00000000
     atom   12 type  1   force =    -0.00002805   -0.00003634    0.00000000
     atom   13 type  1   force =     0.00001173   -0.00000677    0.00000000
     atom   14 type  1   force =    -0.00002172   -0.00000789    0.00000000
     atom   15 type  1   force =     0.00002668   -0.00002283    0.00000000
     atom   16 type  1   force =    -0.00000643    0.00003452    0.00000000
     atom   17 type  1   force =     0.00002890    0.00004891   -0.00000000
     atom   18 type  1   force =     0.00004550   -0.00000612    0.00000000
     atom   19 type  1   force =     0.00000000    0.00000000    0.00000000
     atom   20 type  1   force =     0.00001745    0.00004246    0.00000000
     atom   21 type  1   force =     0.00005680    0.00000057    0.00000000
     atom   22 type  1   force =     0.00004097   -0.00004789   -0.00000000
     atom   23 type  1   force =     0.00001162    0.00000671    0.00000000
     atom   24 type  1   force =    -0.00002098    0.00005943   -0.00000000
     atom   25 type  1   force =     0.00001296   -0.00000748    0.00000000
     atom   26 type  1   force =     0.00002805   -0.00003634    0.00000000
     atom   27 type  1   force =    -0.00001745    0.00004246   -0.00000000
     atom   28 type  1   force =     0.00000000    0.00001497   -0.00000000
     atom   29 type  1   force =    -0.00004097   -0.00004789    0.00000000
     atom   30 type  1   force =     0.00000000   -0.00003554    0.00000000
     atom   31 type  1   force =    -0.00003077    0.00001777    0.00000000
     atom   32 type  1   force =    -0.00006196   -0.00001154    0.00000000
     atom   33 type  1   force =    -0.00002791   -0.00004948    0.00000000
     atom   34 type  1   force =    -0.00001173   -0.00000677    0.00000000
     atom   35 type  1   force =    -0.00005680    0.00000057    0.00000000
     atom   36 type  1   force =    -0.00002668   -0.00002283    0.00000000
     atom   37 type  1   force =    -0.00001162    0.00000671   -0.00000000
     atom   38 type  1   force =     0.00003077    0.00001777    0.00000000
     atom   39 type  1   force =     0.00000000   -0.00001341    0.00000000
     atom   40 type  1   force =    -0.00003311   -0.00001170    0.00000000
     atom   41 type  1   force =     0.00000403    0.00002276    0.00000000
     atom   42 type  1   force =     0.00002172   -0.00000789   -0.00000000
     atom   43 type  1   force =     0.00005662   -0.00003269   -0.00000000
     atom   44 type  1   force =     0.00000643    0.00003452   -0.00000000
     atom   45 type  1   force =     0.00002098    0.00005943   -0.00000000
     atom   46 type  1   force =     0.00006196   -0.00001154    0.00000000
     atom   47 type  1   force =     0.00003311   -0.00001170    0.00000000
     atom   48 type  1   force =    -0.00000000    0.00006538    0.00000000
     atom   49 type  1   force =     0.00003876    0.00002238   -0.00000000
     atom   50 type  2   force =     0.00013836    0.00007988   -0.00000000
     atom   51 type  2   force =    -0.00000000    0.00019033   -0.00000000
     atom   52 type  2   force =     0.00008538   -0.00003477   -0.00000000
     atom   53 type  2   force =     0.00017614   -0.00005513   -0.00000000
     atom   54 type  2   force =     0.00004032    0.00018011    0.00000000
     atom   55 type  2   force =     0.00001257    0.00009133   -0.00000000
     atom   56 type  2   force =     0.00016483   -0.00009517    0.00000000
     atom   57 type  2   force =     0.00007603    0.00001524    0.00000000
     atom   58 type  2   force =     0.00005122    0.00005823   -0.00000000
     atom   59 type  2   force =    -0.00008538   -0.00003477    0.00000000
     atom   60 type  2   force =     0.00000000   -0.00005248    0.00000000
     atom   61 type  2   force =     0.00008867    0.00005120    0.00000000
     atom   62 type  2   force =    -0.00004545    0.00002624    0.00000000
     atom   63 type  2   force =    -0.00007280   -0.00005655    0.00000000
     atom   64 type  2   force =    -0.00016523    0.00004609   -0.00000000
     atom   65 type  2   force =    -0.00001760   -0.00001016    0.00000000
     atom   66 type  2   force =    -0.00004270   -0.00016614    0.00000000
     atom   67 type  2   force =    -0.00017614   -0.00005513    0.00000000
     atom   68 type  2   force =    -0.00008867    0.00005120    0.00000000
     atom   69 type  2   force =     0.00000000   -0.00010239    0.00000000
     atom   70 type  2   force =    -0.00013582   -0.00012498   -0.00000000
     atom   71 type  2   force =     0.00000000    0.00010608    0.00000000
     atom   72 type  2   force =    -0.00003058    0.00015469   -0.00000000
     atom   73 type  2   force =     0.00011867   -0.00010383    0.00000000
     atom   74 type  2   force =     0.00009187   -0.00005304    0.00000000
     atom   75 type  2   force =    -0.00004032    0.00018011   -0.00000000
     atom   76 type  2   force =     0.00004545    0.00002624    0.00000000
     atom   77 type  2   force =     0.00013582   -0.00012498    0.00000000
     atom   78 type  2   force =     0.00016523    0.00004609    0.00000000
     atom   79 type  2   force =     0.00003058    0.00015469   -0.00000000
     atom   80 type  2   force =     0.00000000    0.00000000    0.00000000
     atom   81 type  2   force =     0.00014926   -0.00005086   -0.00000000
     atom   82 type  2   force =     0.00012253    0.00012005   -0.00000000
     atom   83 type  2   force =    -0.00001257    0.00009133    0.00000000
     atom   84 type  2   force =     0.00007280   -0.00005655    0.00000000
     atom   85 type  2   force =    -0.00007603    0.00001524    0.00000000
     atom   86 type  2   force =     0.00001760   -0.00001016   -0.00000000
     atom   87 type  2   force =    -0.00011867   -0.00010383    0.00000000
     atom   88 type  2   force =    -0.00014926   -0.00005086   -0.00000000
     atom   89 type  2   force =     0.00000000    0.00002033   -0.00000000
     atom   90 type  2   force =    -0.00002482   -0.00007347    0.00000000
     atom   91 type  2   force =    -0.00016483   -0.00009517    0.00000000
     atom   92 type  2   force =    -0.00013836    0.00007988    0.00000000
     atom   93 type  2   force =    -0.00005122    0.00005823    0.00000000
     atom   94 type  2   force =     0.00004270   -0.00016614    0.00000000
     atom   95 type  2   force =    -0.00009187   -0.00005304   -0.00000000
     atom   96 type  2   force =    -0.00012253    0.00012005    0.00000000
     atom   97 type  2   force =     0.00002482   -0.00007347   -0.00000000
     atom   98 type  2   force =    -0.00000000   -0.00015977   -0.00000000

     Total force =     0.000984     Total SCF correction =     0.000059


     Computing stress (Cartesian axis) and pressure


     negative rho (up, down):  7.659E-03 0.000E+00
          total   stress  (Ry/bohr**3)                   (kbar)     P=   -1.51
  -0.00000564  -0.00000000   0.00000000         -0.83     -0.00      0.00
  -0.00000000  -0.00000564  -0.00000000         -0.00     -0.83     -0.00
  -0.00000000   0.00000000  -0.00001950         -0.00      0.00     -2.87


     number of scf cycles    =   2
     number of bfgs steps    =   1

     enthalpy old            =   -1953.5657405038 Ry
     enthalpy new            =   -1953.5658385788 Ry

     CASE: enthalpy_new < enthalpy_old

     new trust radius        =       0.0083765478 bohr
     new conv_thr            =       0.0000000100 Ry

     new unit-cell volume =  36122.29392 a.u.^3 (  5352.77163 Ang^3 )
     density =      0.36482 g/cm^3

CELL_PARAMETERS (alat= 33.23461096)
   0.999579475  -0.000000000   0.000000000
  -0.499789738   0.865661219   0.000000000
   0.000000000   0.000000000   1.137203616

ATOMIC_POSITIONS (crystal)
B        0.047622002   0.095244005   0.500000000
B        0.047619104   0.238097491   0.500000000
B        0.047620593   0.380947617   0.500000000
B        0.047622878   0.523811939   0.500000000
B        0.047620593   0.666672976   0.500000000
B        0.047619104   0.809521613   0.500000000
B        0.047622002   0.952377998   0.500000000
B        0.190483410   0.095241705   0.500000000
B        0.190478387   0.238097491   0.500000000
B        0.190475883   0.380951766   0.500000000
B        0.190481995   0.523812116   0.500000000
B        0.190481995   0.666670879   0.500000000
B        0.190475883   0.809524117   0.500000000
B        0.190478387   0.952380896   0.500000000
B        0.333331888   0.095240537   0.500000000
B        0.333331888   0.238091351   0.500000000
B        0.333327024   0.380947617   0.500000000
B        0.333329121   0.523812116   0.500000000
B        0.333333000   0.666667000   0.500000000
B        0.333329121   0.809518005   0.500000000
B        0.333327024   0.952379407   0.500000000
B        0.476188285   0.095243120   0.500000000
B        0.476188051   0.238094025   0.500000000
B        0.476188285   0.380945164   0.500000000
B        0.476188061   0.523811939   0.500000000
B        0.476187884   0.666670879   0.500000000
B        0.476187884   0.809518005   0.500000000
B        0.476188061   0.952377122   0.500000000
B        0.619054836   0.095243120   0.500000000
B        0.619049794   0.238098587   0.500000000
B        0.619049794   0.380950206   0.500000000
B        0.619054836   0.523811715   0.500000000
B        0.619052383   0.666672976   0.500000000
B        0.619048234   0.809524117   0.500000000
B        0.619052383   0.952379407   0.500000000
B        0.761908649   0.095240537   0.500000000
B        0.761905975   0.238094025   0.500000000
B        0.761901413   0.380950206   0.500000000
B        0.761905975   0.523811949   0.500000000
B        0.761908649   0.666668112   0.500000000
B        0.761902509   0.809521613   0.500000000
B        0.761902509   0.952380896   0.500000000
B        0.904758295   0.095241705   0.500000000
B        0.904759463   0.238091351   0.500000000
B        0.904756880   0.380945164   0.500000000
B        0.904756880   0.523811715   0.500000000
B        0.904759463   0.666668112   0.500000000
B        0.904758295   0.809516590   0.500000000
B        0.904755995   0.952377998   0.500000000
N        0.095246510   0.047623255   0.500000000
N        0.095243164   0.190486328   0.500000000
N        0.095241231   0.333331203   0.500000000
N        0.095245076   0.476187546   0.500000000
N        0.095245076   0.619057530   0.500000000
N        0.095241231   0.761910028   0.500000000
N        0.095243164   0.904756836   0.500000000
N        0.238098821   0.047619581   0.500000000
N        0.238098821   0.190479240   0.500000000
N        0.238089972   0.333331203   0.500000000
N        0.238093791   0.476187582   0.500000000
N        0.238100476   0.619050738   0.500000000
N        0.238093791   0.761906209   0.500000000
N        0.238089972   0.904758769   0.500000000
N        0.380945568   0.047621341   0.500000000
N        0.380951031   0.190475515   0.500000000
N        0.380945568   0.333324228   0.500000000
N        0.380942470   0.476187546   0.500000000
N        0.380949262   0.619050738   0.500000000
N        0.380949262   0.761899524   0.500000000
N        0.380942470   0.904754924   0.500000000
N        0.523812605   0.047624211   0.500000000
N        0.523812384   0.190484115   0.500000000
N        0.523812384   0.333327269   0.500000000
N        0.523812605   0.476187395   0.500000000
N        0.523812454   0.619057530   0.500000000
N        0.523812418   0.761906209   0.500000000
N        0.523812454   0.904754924   0.500000000
N        0.666675772   0.047621341   0.500000000
N        0.666672731   0.190484115   0.500000000
N        0.666667000   0.333333000   0.500000000
N        0.666672731   0.476187616   0.500000000
N        0.666675772   0.619054432   0.500000000
N        0.666668797   0.761910028   0.500000000
N        0.666668797   0.904758769   0.500000000
N        0.809520760   0.047619581   0.500000000
N        0.809524485   0.190475515   0.500000000
N        0.809515885   0.333327269   0.500000000
N        0.809515885   0.476187616   0.500000000
N        0.809524485   0.619048969   0.500000000
N        0.809520760   0.761901179   0.500000000
N        0.809513672   0.904756836   0.500000000
N        0.952376745   0.047623255   0.500000000
N        0.952380419   0.190479240   0.500000000
N        0.952378659   0.333324228   0.500000000
N        0.952375789   0.476187395   0.500000000
N        0.952378659   0.619054432   0.500000000
N        0.952380419   0.761901179   0.500000000
N        0.952376745   0.904753490   0.500000000



     Writing output data file hBN.save/
     Message from routine punch:
     wavefunctions written to file
     NEW-OLD atomic charge density approx. for the potential

     negative rho (up, down):  7.665E-03 0.000E+00
     extrapolated charge  391.82722, renormalised to  392.00000

     total cpu time spent up to now is     1412.0 secs

     Self-consistent Calculation

     iteration #  1     ecut=    40.00 Ry     beta= 0.70
     CG style diagonalization
     ethr =  1.00E-06,  avg # of iterations =  2.2

     Threshold (ethr) on eigenvalues was too large:
     Diagonalizing with lowered threshold

     CG style diagonalization
     ethr =  7.08E-08,  avg # of iterations =  2.0

     negative rho (up, down):  7.692E-03 0.000E+00

     total cpu time spent up to now is     1503.7 secs

     total energy              =   -1953.56543318 Ry
     Harris-Foulkes estimate   =   -1958.15512114 Ry
     estimated scf accuracy    <       0.00032391 Ry

     iteration #  2     ecut=    40.00 Ry     beta= 0.70
     CG style diagonalization
     ethr =  8.26E-08,  avg # of iterations =  5.2

     negative rho (up, down):  7.672E-03 0.000E+00

     total cpu time spent up to now is     1594.1 secs

     total energy              =   -1953.56586491 Ry
     Harris-Foulkes estimate   =   -1953.56619053 Ry
     estimated scf accuracy    <       0.00089364 Ry

     iteration #  3     ecut=    40.00 Ry     beta= 0.70
     CG style diagonalization
     ethr =  8.26E-08,  avg # of iterations =  4.0

     negative rho (up, down):  7.668E-03 0.000E+00

     total cpu time spent up to now is     1661.5 secs

     total energy              =   -1953.56590675 Ry
     Harris-Foulkes estimate   =   -1953.56593825 Ry
     estimated scf accuracy    <       0.00011432 Ry

     iteration #  4     ecut=    40.00 Ry     beta= 0.70
     CG style diagonalization
     ethr =  2.92E-08,  avg # of iterations =  3.2

     negative rho (up, down):  7.665E-03 0.000E+00

     total cpu time spent up to now is     1713.5 secs

     total energy              =   -1953.56590215 Ry
     Harris-Foulkes estimate   =   -1953.56591305 Ry
     estimated scf accuracy    <       0.00003501 Ry

     iteration #  5     ecut=    40.00 Ry     beta= 0.70
     CG style diagonalization
     ethr =  8.93E-09,  avg # of iterations =  3.1

     negative rho (up, down):  7.663E-03 0.000E+00

     total cpu time spent up to now is     1764.7 secs

     total energy              =   -1953.56590221 Ry
     Harris-Foulkes estimate   =   -1953.56590542 Ry
     estimated scf accuracy    <       0.00000789 Ry

     iteration #  6     ecut=    40.00 Ry     beta= 0.70
     CG style diagonalization
     ethr =  2.01E-09,  avg # of iterations =  3.8

     negative rho (up, down):  7.665E-03 0.000E+00

     total cpu time spent up to now is     1829.1 secs

     total energy              =   -1953.56590390 Ry
     Harris-Foulkes estimate   =   -1953.56590395 Ry
     estimated scf accuracy    <       0.00000025 Ry

     iteration #  7     ecut=    40.00 Ry     beta= 0.70
     CG style diagonalization
     ethr =  6.41E-11,  avg # of iterations =  3.7

     negative rho (up, down):  7.666E-03 0.000E+00

     total cpu time spent up to now is     1891.1 secs

     total energy              =   -1953.56590388 Ry
     Harris-Foulkes estimate   =   -1953.56590396 Ry
     estimated scf accuracy    <       0.00000017 Ry

     iteration #  8     ecut=    40.00 Ry     beta= 0.70
     CG style diagonalization
     ethr =  4.26E-11,  avg # of iterations =  3.2

     negative rho (up, down):  7.666E-03 0.000E+00

     total cpu time spent up to now is     1945.1 secs

     total energy              =   -1953.56590387 Ry
     Harris-Foulkes estimate   =   -1953.56590390 Ry
     estimated scf accuracy    <       0.00000003 Ry

     iteration #  9     ecut=    40.00 Ry     beta= 0.70
     CG style diagonalization
     ethr =  7.64E-12,  avg # of iterations =  4.2

     negative rho (up, down):  7.666E-03 0.000E+00

     total cpu time spent up to now is     2017.5 secs

     total energy              =   -1953.56590389 Ry
     Harris-Foulkes estimate   =   -1953.56590390 Ry
     estimated scf accuracy    <       0.00000003 Ry

     iteration # 10     ecut=    40.00 Ry     beta= 0.70
     CG style diagonalization
     ethr =  6.66E-12,  avg # of iterations =  3.3

     negative rho (up, down):  7.666E-03 0.000E+00

     total cpu time spent up to now is     2071.2 secs

     End of self-consistent calculation

          k = 0.0000 0.0000 0.0000 ( 77199 PWs)   bands (ev):

   -21.6980 -21.3116 -21.3115 -21.3115 -21.3110 -21.3110 -21.3110 -20.5727
   -20.5727 -20.5727 -20.5727 -20.5727 -20.5727 -20.2304 -20.2301 -20.2301
   -20.2296 -20.2296 -20.2293 -19.3060 -19.3060 -19.3060 -19.3060 -19.3059
   -19.3059 -19.3059 -19.3059 -19.3058 -19.3058 -19.3058 -19.3058 -18.9104
   -18.9104 -18.9104 -18.9103 -18.9103 -18.9103 -18.4551 -18.4551 -18.4551
   -18.4551 -18.4547 -18.4547 -18.2913 -18.2913 -18.2912 -18.2912 -18.2911
   -18.2911 -12.6974 -12.6974 -12.6970 -12.6970 -12.6969 -12.6969 -12.4945
   -12.4945 -12.4945 -12.4945 -12.4945 -12.4945 -12.0061 -12.0061 -12.0061
   -12.0061 -12.0060 -12.0060 -11.3099 -11.3099 -11.3099 -11.3099 -11.3099
   -11.3099 -11.3096 -11.3096 -11.3095 -11.3095 -11.3095 -11.3095 -10.6484
   -10.6484 -10.6484 -10.6484 -10.6483 -10.6483  -9.9390  -9.9389  -9.9389
    -9.9387  -9.9387  -9.9386  -9.2798  -9.2362  -9.2362  -9.2360  -9.2360
    -9.2355  -9.2354  -8.8139  -8.8139  -8.8139  -8.8139  -8.8139  -8.8139
    -8.7685  -8.7685  -8.7685  -8.7685  -8.7684  -8.7684  -8.7678  -8.7678
    -8.7677  -8.7677  -8.7677  -8.7677  -8.7591  -8.7590  -8.7590  -8.7586
    -8.7586  -8.7585  -8.0945  -8.0945  -8.0945  -8.0945  -8.0944  -8.0944
    -7.7554  -7.7554  -7.7554  -7.7554  -7.7554  -7.7554  -7.4171  -7.4171
    -7.4171  -7.4171  -7.4170  -7.4170  -7.3113  -7.3111  -7.3111  -7.3108
    -7.3108  -7.3106  -7.2837  -7.2835  -7.2835  -7.2831  -7.2831  -7.2828
    -6.9188  -6.9188  -6.9188  -6.9184  -6.9184  -6.9184  -6.0961  -6.0960
    -6.0959  -6.0957  -6.0955  -6.0955  -5.9844  -5.9844  -5.9843  -5.9843
    -5.9843  -5.9843  -5.9842  -5.9842  -5.9842  -5.9842  -5.9842  -5.9842
    -5.4131  -5.4131  -5.3917  -5.3917  -5.3917  -5.3916  -5.3916  -5.3916
    -4.6947  -4.6947  -4.6945  -4.6945  -4.6944  -4.6944  -4.4503  -4.4503
    -4.4503  -4.4503  -4.4502  -4.4502

     highest occupied level (ev):    -4.4502

!    total energy              =   -1953.56590389 Ry
     Harris-Foulkes estimate   =   -1953.56590389 Ry
     estimated scf accuracy    <          2.6E-09 Ry

     total all-electron energy =     -7810.935033 Ry

     The total energy is the sum of the following terms:

     one-electron contribution =  -10738.07383236 Ry
     hartree contribution      =    5455.76991751 Ry
     xc contribution           =    -431.66498766 Ry
     ewald contribution        =    4406.50304166 Ry
     DFT-D3 Dispersion         =      -0.27026323 Ry
     one-center paw contrib.   =    -645.82977981 Ry

     convergence has been achieved in  10 iterations

     negative rho (up, down):  7.666E-03 0.000E+00

     Forces acting on atoms (cartesian axes, Ry/au):

     atom    1 type  1   force =    -0.00000000    0.00016057   -0.00000000
     atom    2 type  1   force =    -0.00005329    0.00006030   -0.00000000
     atom    3 type  1   force =     0.00010561   -0.00015063    0.00000000
     atom    4 type  1   force =     0.00006766    0.00003907    0.00000000
     atom    5 type  1   force =    -0.00007765    0.00016677   -0.00000000
     atom    6 type  1   force =     0.00002558   -0.00007630   -0.00000000
     atom    7 type  1   force =     0.00013906   -0.00008029    0.00000000
     atom    8 type  1   force =     0.00019153    0.00011058    0.00000000
     atom    9 type  1   force =     0.00005329    0.00006030    0.00000000
     atom   10 type  1   force =    -0.00000000   -0.00003294    0.00000000
     atom   11 type  1   force =     0.00015477    0.00004274   -0.00000000
     atom   12 type  1   force =     0.00011440    0.00011266    0.00000000
     atom   13 type  1   force =    -0.00002853    0.00001647   -0.00000000
     atom   14 type  1   force =     0.00007887    0.00001600   -0.00000000
     atom   15 type  1   force =    -0.00008130    0.00008106    0.00000000
     atom   16 type  1   force =     0.00002955   -0.00011094   -0.00000000
     atom   17 type  1   force =    -0.00010561   -0.00015063    0.00000000
     atom   18 type  1   force =    -0.00015477    0.00004274    0.00000000
     atom   19 type  1   force =     0.00000000    0.00000000    0.00000000
     atom   20 type  1   force =    -0.00004037   -0.00015541   -0.00000000
     atom   21 type  1   force =    -0.00018326   -0.00001614    0.00000000
     atom   22 type  1   force =    -0.00014531    0.00015863    0.00000000
     atom   23 type  1   force =    -0.00004611   -0.00002662    0.00000000
     atom   24 type  1   force =     0.00006473   -0.00020516    0.00000000
     atom   25 type  1   force =    -0.00006766    0.00003907   -0.00000000
     atom   26 type  1   force =    -0.00011440    0.00011266   -0.00000000
     atom   27 type  1   force =     0.00004037   -0.00015541   -0.00000000
     atom   28 type  1   force =     0.00000000   -0.00007813    0.00000000
     atom   29 type  1   force =     0.00014531    0.00015863    0.00000000
     atom   30 type  1   force =     0.00000000    0.00011775    0.00000000
     atom   31 type  1   force =     0.00010198   -0.00005888    0.00000000
     atom   32 type  1   force =     0.00021004    0.00004653    0.00000000
     atom   33 type  1   force =     0.00007765    0.00016677   -0.00000000
     atom   34 type  1   force =     0.00002853    0.00001647    0.00000000
     atom   35 type  1   force =     0.00018326   -0.00001614    0.00000000
     atom   36 type  1   force =     0.00008130    0.00008106   -0.00000000
     atom   37 type  1   force =     0.00004611   -0.00002662    0.00000000
     atom   38 type  1   force =    -0.00010198   -0.00005888    0.00000000
     atom   39 type  1   force =    -0.00000000    0.00005325    0.00000000
     atom   40 type  1   force =     0.00011086    0.00002988    0.00000000
     atom   41 type  1   force =    -0.00002558   -0.00007630    0.00000000
     atom   42 type  1   force =    -0.00007887    0.00001600    0.00000000
     atom   43 type  1   force =    -0.00019153    0.00011058    0.00000000
     atom   44 type  1   force =    -0.00002955   -0.00011094    0.00000000
     atom   45 type  1   force =    -0.00006473   -0.00020516    0.00000000
     atom   46 type  1   force =    -0.00021004    0.00004653    0.00000000
     atom   47 type  1   force =    -0.00011086    0.00002988   -0.00000000
     atom   48 type  1   force =    -0.00000000   -0.00022116    0.00000000
     atom   49 type  1   force =    -0.00013906   -0.00008029    0.00000000
     atom   50 type  2   force =    -0.00015920   -0.00009192    0.00000000
     atom   51 type  2   force =    -0.00000000   -0.00021165    0.00000000
     atom   52 type  2   force =    -0.00009417    0.00004721    0.00000000
     atom   53 type  2   force =    -0.00019342    0.00006848    0.00000000
     atom   54 type  2   force =    -0.00003741   -0.00020174   -0.00000000
     atom   55 type  2   force =    -0.00000620   -0.00010516    0.00000000
     atom   56 type  2   force =    -0.00018329    0.00010582    0.00000000
     atom   57 type  2   force =    -0.00008546   -0.00002141    0.00000000
     atom   58 type  2   force =    -0.00006127   -0.00006331    0.00000000
     atom   59 type  2   force =     0.00009417    0.00004721    0.00000000
     atom   60 type  2   force =    -0.00000000    0.00006712    0.00000000
     atom   61 type  2   force =    -0.00009669   -0.00005583   -0.00000000
     atom   62 type  2   force =     0.00005813   -0.00003356   -0.00000000
     atom   63 type  2   force =     0.00008797    0.00005795    0.00000000
     atom   64 type  2   force =     0.00019022   -0.00006027    0.00000000
     atom   65 type  2   force =     0.00002008    0.00001159   -0.00000000
     atom   66 type  2   force =     0.00004291    0.00019487    0.00000000
     atom   67 type  2   force =     0.00019342    0.00006848   -0.00000000
     atom   68 type  2   force =     0.00009669   -0.00005583   -0.00000000
     atom   69 type  2   force =    -0.00000000    0.00011165   -0.00000000
     atom   70 type  2   force =     0.00015601    0.00013326   -0.00000000
     atom   71 type  2   force =     0.00000000   -0.00012868    0.00000000
     atom   72 type  2   force =     0.00003561   -0.00017711   -0.00000000
     atom   73 type  2   force =    -0.00013558    0.00011940   -0.00000000
     atom   74 type  2   force =    -0.00011144    0.00006434   -0.00000000
     atom   75 type  2   force =     0.00003741   -0.00020174    0.00000000
     atom   76 type  2   force =    -0.00005813   -0.00003356    0.00000000
     atom   77 type  2   force =    -0.00015601    0.00013326    0.00000000
     atom   78 type  2   force =    -0.00019022   -0.00006027   -0.00000000
     atom   79 type  2   force =    -0.00003561   -0.00017711   -0.00000000
     atom   80 type  2   force =     0.00000000    0.00000000    0.00000000
     atom   81 type  2   force =    -0.00017119    0.00005771   -0.00000000
     atom   82 type  2   force =    -0.00014731   -0.00013460   -0.00000000
     atom   83 type  2   force =     0.00000620   -0.00010516   -0.00000000
     atom   84 type  2   force =    -0.00008797    0.00005795    0.00000000
     atom   85 type  2   force =     0.00008546   -0.00002141   -0.00000000
     atom   86 type  2   force =    -0.00002008    0.00001159   -0.00000000
     atom   87 type  2   force =     0.00013558    0.00011940   -0.00000000
     atom   88 type  2   force =     0.00017119    0.00005771    0.00000000
     atom   89 type  2   force =     0.00000000   -0.00002319    0.00000000
     atom   90 type  2   force =     0.00002419    0.00008472    0.00000000
     atom   91 type  2   force =     0.00018329    0.00010582    0.00000000
     atom   92 type  2   force =     0.00015920   -0.00009192   -0.00000000
     atom   93 type  2   force =     0.00006127   -0.00006331   -0.00000000
     atom   94 type  2   force =    -0.00004291    0.00019487    0.00000000
     atom   95 type  2   force =     0.00011144    0.00006434    0.00000000
     atom   96 type  2   force =     0.00014731   -0.00013460   -0.00000000
     atom   97 type  2   force =    -0.00002419    0.00008472    0.00000000
     atom   98 type  2   force =    -0.00000000    0.00018383   -0.00000000

     Total force =     0.001479     Total SCF correction =     0.000014


     Computing stress (Cartesian axis) and pressure


     negative rho (up, down):  7.666E-03 0.000E+00
          total   stress  (Ry/bohr**3)                   (kbar)     P=   -1.21
  -0.00000274  -0.00000000   0.00000000         -0.40     -0.00      0.00
  -0.00000000  -0.00000274   0.00000000         -0.00     -0.40      0.00
   0.00000000   0.00000000  -0.00001910          0.00      0.00     -2.81


     number of scf cycles    =   3
     number of bfgs steps    =   2

     enthalpy old            =   -1953.5658385788 Ry
     enthalpy new            =   -1953.5659038891 Ry

     CASE: enthalpy_new < enthalpy_old

     new trust radius        =       0.0084700145 bohr
     new conv_thr            =       0.0000000100 Ry

     new unit-cell volume =  36106.19771 a.u.^3 (  5350.38642 Ang^3 )
     density =      0.36498 g/cm^3

CELL_PARAMETERS (alat= 33.23461096)
   0.999356743  -0.000000000   0.000000000
  -0.499678371   0.865468327   0.000000000
   0.000000000   0.000000000   1.137203616

ATOMIC_POSITIONS (crystal)
B        0.047626448   0.095252896   0.500000000
B        0.047618287   0.238100875   0.500000000
B        0.047621559   0.380939421   0.500000000
B        0.047627356   0.523814178   0.500000000
B        0.047621559   0.666682138   0.500000000
B        0.047618287   0.809517412   0.500000000
B        0.047626448   0.952373552   0.500000000
B        0.190495584   0.095247792   0.500000000
B        0.190482588   0.238100875   0.500000000
B        0.190475013   0.380950026   0.500000000
B        0.190490616   0.523814622   0.500000000
B        0.190490616   0.666676994   0.500000000
B        0.190475013   0.809524987   0.500000000
B        0.190482588   0.952381713   0.500000000
B        0.333330325   0.095245037   0.500000000
B        0.333330325   0.238085289   0.500000000
B        0.333317862   0.380939421   0.500000000
B        0.333323006   0.523814622   0.500000000
B        0.333333000   0.666667000   0.500000000
B        0.333323006   0.809509384   0.500000000
B        0.333317862   0.952378441   0.500000000
B        0.476185669   0.095251832   0.500000000
B        0.476185062   0.238092531   0.500000000
B        0.476185669   0.380933837   0.500000000
B        0.476185822   0.523814178   0.500000000
B        0.476185378   0.666676994   0.500000000
B        0.476185378   0.809509384   0.500000000
B        0.476185822   0.952372644   0.500000000
B        0.619066163   0.095251832   0.500000000
B        0.619053031   0.238105062   0.500000000
B        0.619053031   0.380946969   0.500000000
B        0.619066163   0.523814331   0.500000000
B        0.619060579   0.666682138   0.500000000
B        0.619049974   0.809524987   0.500000000
B        0.619060579   0.952378441   0.500000000
B        0.761914711   0.095245037   0.500000000
B        0.761907469   0.238092531   0.500000000
B        0.761894938   0.380946969   0.500000000
B        0.761907469   0.523814938   0.500000000
B        0.761914711   0.666669675   0.500000000
B        0.761899125   0.809517412   0.500000000
B        0.761899125   0.952381713   0.500000000
B        0.904752208   0.095247792   0.500000000
B        0.904754963   0.238085289   0.500000000
B        0.904748168   0.380933837   0.500000000
B        0.904748168   0.523814331   0.500000000
B        0.904754963   0.666669675   0.500000000
B        0.904752208   0.809504416   0.500000000
B        0.904747104   0.952373552   0.500000000
N        0.095238751   0.047619375   0.500000000
N        0.095238775   0.190477551   0.500000000
N        0.095238934   0.333333353   0.500000000
N        0.095239669   0.476190531   0.500000000
N        0.095239669   0.619049139   0.500000000
N        0.095238934   0.761905582   0.500000000
N        0.095238775   0.904761225   0.500000000
N        0.238095244   0.047618600   0.500000000
N        0.238095244   0.190476644   0.500000000
N        0.238094418   0.333333353   0.500000000
N        0.238095275   0.476190551   0.500000000
N        0.238095899   0.619048449   0.500000000
N        0.238095275   0.761904725   0.500000000
N        0.238094418   0.904761066   0.500000000
N        0.380951173   0.047618641   0.500000000
N        0.380952001   0.190476001   0.500000000
N        0.380951173   0.333332531   0.500000000
N        0.380950861   0.476190531   0.500000000
N        0.380951551   0.619048449   0.500000000
N        0.380951551   0.761904101   0.500000000
N        0.380950861   0.904760331   0.500000000
N        0.523809825   0.047618649   0.500000000
N        0.523809977   0.190476663   0.500000000
N        0.523809977   0.333332314   0.500000000
N        0.523809825   0.476190175   0.500000000
N        0.523809469   0.619049139   0.500000000
N        0.523809449   0.761904725   0.500000000
N        0.523809469   0.904760331   0.500000000
N        0.666667469   0.047618641   0.500000000
N        0.666667686   0.190476663   0.500000000
N        0.666667000   0.333333000   0.500000000
N        0.666667686   0.476190023   0.500000000
N        0.666667469   0.619048827   0.500000000
N        0.666666647   0.761905582   0.500000000
N        0.666666647   0.904761066   0.500000000
N        0.809523356   0.047618600   0.500000000
N        0.809523999   0.190476001   0.500000000
N        0.809523337   0.333332314   0.500000000
N        0.809523337   0.476190023   0.500000000
N        0.809523999   0.619047999   0.500000000
N        0.809523356   0.761904756   0.500000000
N        0.809522449   0.904761225   0.500000000
N        0.952380625   0.047619375   0.500000000
N        0.952381400   0.190476644   0.500000000
N        0.952381359   0.333332531   0.500000000
N        0.952381351   0.476190175   0.500000000
N        0.952381359   0.619048827   0.500000000
N        0.952381400   0.761904756   0.500000000
N        0.952380625   0.904761249   0.500000000



     Writing output data file hBN.save/
     Message from routine punch:
     wavefunctions written to file
     NEW-OLD atomic charge density approx. for the potential

     negative rho (up, down):  7.672E-03 0.000E+00
[...]
        89           N   tau(  89) = (   0.4996737   0.5357620   0.5686018  )
        90           N   tau(  90) = (   0.4282904   0.6593952   0.5686018  )
        91           N   tau(  91) = (   0.3569025   0.7830312   0.5686018  )
        92           N   tau(  92) = (   0.9279594   0.0412158   0.5686018  )
        93           N   tau(  93) = (   0.8565814   0.1648522   0.5686018  )
        94           N   tau(  94) = (   0.7852035   0.2884793   0.5686018  )
        95           N   tau(  95) = (   0.7138161   0.4121213   0.5686018  )
        96           N   tau(  96) = (   0.6424322   0.5357666   0.5686018  )
        97           N   tau(  97) = (   0.5710569   0.6593952   0.5686018  )
        98           N   tau(  98) = (   0.4996737   0.7830285   0.5686018  )

     number of k points=     1
                       cart. coord. in units 2pi/alat
        k(    1) = (   0.0000000   0.0000000   0.0000000), wk =   2.0000000

     Dense  grid:  3408318 G-vectors     FFT dimensions: ( 240, 240, 270)

     Smooth grid:   616907 G-vectors     FFT dimensions: ( 135, 135, 160)

     Estimated max dynamical RAM per process >       1.31 GB

     Estimated total dynamical RAM >      20.90 GB

     Initial potential from superposition of free atoms

     starting charge  391.98580, renormalised to  392.00000

     negative rho (up, down):  4.265E-03 0.000E+00
     Starting wfcs are  392 randomized atomic wfcs
     Checking if some PAW data can be deallocated... 

     total cpu time spent up to now is     3528.6 secs

     Self-consistent Calculation

     iteration #  1     ecut=    40.00 Ry     beta= 0.70
     CG style diagonalization
     ethr =  1.00E-06,  avg # of iterations = 13.0

     negative rho (up, down):  6.727E-03 0.000E+00

     total cpu time spent up to now is     3761.7 secs

     total energy              =   -1947.02037342 Ry
     Harris-Foulkes estimate   =   -1960.22458726 Ry
     estimated scf accuracy    <      19.59899969 Ry

     iteration #  2     ecut=    40.00 Ry     beta= 0.70
     CG style diagonalization
     ethr =  5.00E-03,  avg # of iterations =  4.1

     negative rho (up, down):  2.094E-02 0.000E+00

     total cpu time spent up to now is     3830.9 secs

     total energy              =   -1951.48851969 Ry
     Harris-Foulkes estimate   =   -1956.58003403 Ry
     estimated scf accuracy    <       9.64630454 Ry

     iteration #  3     ecut=    40.00 Ry     beta= 0.70
     CG style diagonalization
     ethr =  2.46E-03,  avg # of iterations =  4.0

     negative rho (up, down):  8.151E-03 0.000E+00

     total cpu time spent up to now is     3898.7 secs

     total energy              =   -1953.51811838 Ry
     Harris-Foulkes estimate   =   -1953.53289913 Ry
     estimated scf accuracy    <       0.07861066 Ry

     iteration #  4     ecut=    40.00 Ry     beta= 0.70
     CG style diagonalization
     ethr =  2.01E-05,  avg # of iterations =  4.3

     negative rho (up, down):  7.920E-03 0.000E+00

     total cpu time spent up to now is     3971.3 secs

     total energy              =   -1953.56116559 Ry
     Harris-Foulkes estimate   =   -1953.57281352 Ry
     estimated scf accuracy    <       0.02653211 Ry

     iteration #  5     ecut=    40.00 Ry     beta= 0.70
     CG style diagonalization
     ethr =  6.77E-06,  avg # of iterations =  3.7

     negative rho (up, down):  7.859E-03 0.000E+00

     total cpu time spent up to now is     4033.7 secs

     total energy              =   -1953.56439832 Ry
     Harris-Foulkes estimate   =   -1953.56441081 Ry
     estimated scf accuracy    <       0.00131399 Ry

     iteration #  6     ecut=    40.00 Ry     beta= 0.70
     CG style diagonalization
     ethr =  3.35E-07,  avg # of iterations =  4.1

     negative rho (up, down):  7.695E-03 0.000E+00

     total cpu time spent up to now is     4103.8 secs

     total energy              =   -1953.56484126 Ry
     Harris-Foulkes estimate   =   -1953.56493964 Ry
     estimated scf accuracy    <       0.00024880 Ry

     iteration #  7     ecut=    40.00 Ry     beta= 0.70
     CG style diagonalization
     ethr =  6.35E-08,  avg # of iterations =  3.3

     negative rho (up, down):  7.668E-03 0.000E+00

     total cpu time spent up to now is     4158.0 secs

     total energy              =   -1953.56483813 Ry
     Harris-Foulkes estimate   =   -1953.56486563 Ry
     estimated scf accuracy    <       0.00005476 Ry

     iteration #  8     ecut=    40.00 Ry     beta= 0.70
     CG style diagonalization
     ethr =  1.40E-08,  avg # of iterations =  4.0

     negative rho (up, down):  7.674E-03 0.000E+00

     total cpu time spent up to now is     4225.2 secs

     total energy              =   -1953.56485327 Ry
     Harris-Foulkes estimate   =   -1953.56485387 Ry
     estimated scf accuracy    <       0.00000135 Ry

     iteration #  9     ecut=    40.00 Ry     beta= 0.70
     CG style diagonalization
     ethr =  3.43E-10,  avg # of iterations =  4.2

     negative rho (up, down):  7.676E-03 0.000E+00

     total cpu time spent up to now is     4295.9 secs

     total energy              =   -1953.56485371 Ry
     Harris-Foulkes estimate   =   -1953.56485379 Ry
     estimated scf accuracy    <       0.00000031 Ry

     iteration # 10     ecut=    40.00 Ry     beta= 0.70
     CG style diagonalization
     ethr =  7.87E-11,  avg # of iterations =  3.2

     negative rho (up, down):  7.677E-03 0.000E+00

     total cpu time spent up to now is     4348.9 secs

     total energy              =   -1953.56485371 Ry
     Harris-Foulkes estimate   =   -1953.56485373 Ry
     estimated scf accuracy    <       0.00000011 Ry

     iteration # 11     ecut=    40.00 Ry     beta= 0.70
     CG style diagonalization
     ethr =  2.70E-11,  avg # of iterations =  3.5

     negative rho (up, down):  7.677E-03 0.000E+00

     total cpu time spent up to now is     4407.2 secs

     total energy              =   -1953.56485370 Ry
     Harris-Foulkes estimate   =   -1953.56485372 Ry
     estimated scf accuracy    <       0.00000005 Ry

     iteration # 12     ecut=    40.00 Ry     beta= 0.70
     CG style diagonalization
     ethr =  1.19E-11,  avg # of iterations =  4.0

     negative rho (up, down):  7.677E-03 0.000E+00

     total cpu time spent up to now is     4474.2 secs

     End of self-consistent calculation

          k = 0.0000 0.0000 0.0000 ( 77079 PWs)   bands (ev):

   -21.7007 -21.3141 -21.3141 -21.3141 -21.3134 -21.3134 -21.3134 -20.5747
   -20.5747 -20.5747 -20.5747 -20.5747 -20.5747 -20.2324 -20.2321 -20.2320
   -20.2313 -20.2313 -20.2309 -19.3073 -19.3072 -19.3072 -19.3072 -19.3072
   -19.3072 -19.3070 -19.3070 -19.3070 -19.3070 -19.3070 -19.3070 -18.9113
   -18.9113 -18.9112 -18.9112 -18.9112 -18.9112 -18.4557 -18.4557 -18.4556
   -18.4556 -18.4549 -18.4549 -18.2916 -18.2916 -18.2915 -18.2915 -18.2914
   -18.2914 -12.6987 -12.6987 -12.6982 -12.6982 -12.6981 -12.6981 -12.4955
   -12.4955 -12.4955 -12.4955 -12.4955 -12.4954 -12.0077 -12.0077 -12.0076
   -12.0076 -12.0076 -12.0076 -11.3103 -11.3102 -11.3102 -11.3102 -11.3102
   -11.3102 -11.3098 -11.3098 -11.3098 -11.3098 -11.3097 -11.3097 -10.6484
   -10.6483 -10.6483 -10.6483 -10.6482 -10.6482  -9.9385  -9.9384  -9.9384
    -9.9382  -9.9382  -9.9381  -9.2820  -9.2358  -9.2358  -9.2358  -9.2358
    -9.2351  -9.2351  -8.8128  -8.8128  -8.8127  -8.8127  -8.8127  -8.8127
    -8.7682  -8.7682  -8.7682  -8.7682  -8.7681  -8.7681  -8.7673  -8.7673
    -8.7673  -8.7672  -8.7672  -8.7672  -8.7610  -8.7609  -8.7609  -8.7603
    -8.7603  -8.7603  -8.0941  -8.0941  -8.0941  -8.0940  -8.0940  -8.0940
    -7.7566  -7.7566  -7.7566  -7.7566  -7.7566  -7.7566  -7.4161  -7.4161
    -7.4161  -7.4161  -7.4161  -7.4161  -7.3101  -7.3100  -7.3100  -7.3099
    -7.3099  -7.3098  -7.2848  -7.2845  -7.2845  -7.2839  -7.2839  -7.2836
    -6.9170  -6.9170  -6.9169  -6.9168  -6.9168  -6.9167  -6.0944  -6.0944
    -6.0942  -6.0939  -6.0938  -6.0938  -5.9843  -5.9843  -5.9843  -5.9843
    -5.9843  -5.9843  -5.9842  -5.9842  -5.9842  -5.9842  -5.9842  -5.9842
    -5.4109  -5.4109  -5.3913  -5.3913  -5.3913  -5.3912  -5.3912  -5.3912
    -4.6938  -4.6938  -4.6935  -4.6935  -4.6932  -4.6932  -4.4492  -4.4492
    -4.4491  -4.4491  -4.4491  -4.4490

     highest occupied level (ev):    -4.4490

!    total energy              =   -1953.56485371 Ry
     Harris-Foulkes estimate   =   -1953.56485371 Ry
     estimated scf accuracy    <          9.7E-10 Ry

     total all-electron energy =     -7810.933982 Ry

     The total energy is the sum of the following terms:

     one-electron contribution =  -10743.03309554 Ry
     hartree contribution      =    5458.27640740 Ry
     xc contribution           =    -431.71246668 Ry
     ewald contribution        =    4409.00504649 Ry
     DFT-D3 Dispersion         =      -0.27035605 Ry
     one-center paw contrib.   =    -645.83038933 Ry

     convergence has been achieved in  12 iterations

     negative rho (up, down):  7.677E-03 0.000E+00

     Forces acting on atoms (cartesian axes, Ry/au):

     atom    1 type  1   force =    -0.00000000    0.00009824    0.00000000
     atom    2 type  1   force =    -0.00003393    0.00003059    0.00000000
     atom    3 type  1   force =     0.00005759   -0.00010161    0.00000000
     atom    4 type  1   force =     0.00003253    0.00001878    0.00000000
     atom    5 type  1   force =    -0.00005920    0.00010068   -0.00000000
     atom    6 type  1   force =     0.00000952   -0.00004468    0.00000000
     atom    7 type  1   force =     0.00008507   -0.00004912    0.00000000
     atom    8 type  1   force =     0.00012114    0.00006994    0.00000000
     atom    9 type  1   force =     0.00003393    0.00003059   -0.00000000
     atom   10 type  1   force =    -0.00000000   -0.00003378    0.00000000
     atom   11 type  1   force =     0.00008836    0.00002125    0.00000000
     atom   12 type  1   force =     0.00006258    0.00006590   -0.00000000
     atom   13 type  1   force =    -0.00002925    0.00001689   -0.00000000
     atom   14 type  1   force =     0.00004346    0.00001409    0.00000000
     atom   15 type  1   force =    -0.00004899    0.00005996   -0.00000000
     atom   16 type  1   force =     0.00002743   -0.00007241    0.00000000
     atom   17 type  1   force =    -0.00005759   -0.00010161   -0.00000000
     atom   18 type  1   force =    -0.00008836    0.00002125    0.00000000
     atom   19 type  1   force =     0.00000000    0.00000000    0.00000000
     atom   20 type  1   force =    -0.00002578   -0.00008715   -0.00000000
     atom   21 type  1   force =    -0.00011679    0.00000093    0.00000000
     atom   22 type  1   force =    -0.00009229    0.00010818   -0.00000000
     atom   23 type  1   force =    -0.00002823   -0.00001630   -0.00000000
     atom   24 type  1   force =     0.00004754   -0.00013402    0.00000000
     atom   25 type  1   force =    -0.00003253    0.00001878   -0.00000000
     atom   26 type  1   force =    -0.00006258    0.00006590    0.00000000
     atom   27 type  1   force =     0.00002578   -0.00008715    0.00000000
     atom   28 type  1   force =    -0.00000000   -0.00003756    0.00000000
     atom   29 type  1   force =     0.00009229    0.00010818    0.00000000
     atom   30 type  1   force =    -0.00000000    0.00007414    0.00000000
     atom   31 type  1   force =     0.00006421   -0.00003707    0.00000000
     atom   32 type  1   force =     0.00013983    0.00002584   -0.00000000
     atom   33 type  1   force =     0.00005920    0.00010068   -0.00000000
     atom   34 type  1   force =     0.00002925    0.00001689   -0.00000000
     atom   35 type  1   force =     0.00011679    0.00000093    0.00000000
     atom   36 type  1   force =     0.00004899    0.00005996    0.00000000
     atom   37 type  1   force =     0.00002823   -0.00001630    0.00000000
     atom   38 type  1   force =    -0.00006421   -0.00003707    0.00000000
     atom   39 type  1   force =     0.00000000    0.00003260    0.00000000
     atom   40 type  1   force =     0.00007642    0.00001245    0.00000000
     atom   41 type  1   force =    -0.00000952   -0.00004468    0.00000000
     atom   42 type  1   force =    -0.00004346    0.00001409    0.00000000
     atom   43 type  1   force =    -0.00012114    0.00006994    0.00000000
     atom   44 type  1   force =    -0.00002743   -0.00007241    0.00000000
     atom   45 type  1   force =    -0.00004754   -0.00013402    0.00000000
     atom   46 type  1   force =    -0.00013983    0.00002584    0.00000000
     atom   47 type  1   force =    -0.00007642    0.00001245    0.00000000
     atom   48 type  1   force =    -0.00000000   -0.00013989    0.00000000
     atom   49 type  1   force =    -0.00008507   -0.00004912    0.00000000
     atom   50 type  2   force =    -0.00011530   -0.00006657    0.00000000
     atom   51 type  2   force =    -0.00000000   -0.00015198    0.00000000
     atom   52 type  2   force =    -0.00006506    0.00004312    0.00000000
     atom   53 type  2   force =    -0.00013308    0.00005410    0.00000000
     atom   54 type  2   force =    -0.00001969   -0.00014230    0.00000000
     atom   55 type  2   force =     0.00000481   -0.00007791   -0.00000000
     atom   56 type  2   force =    -0.00013162    0.00007599    0.00000000
     atom   57 type  2   force =    -0.00006671   -0.00001818   -0.00000000
     atom   58 type  2   force =    -0.00004910   -0.00004868    0.00000000
     atom   59 type  2   force =     0.00006506    0.00004312   -0.00000000
     atom   60 type  2   force =     0.00000000    0.00005437    0.00000000
     atom   61 type  2   force =    -0.00006558   -0.00003786    0.00000000
     atom   62 type  2   force =     0.00004708   -0.00002718    0.00000000
     atom   63 type  2   force =     0.00006987    0.00003478    0.00000000
     atom   64 type  2   force =     0.00014083   -0.00005371    0.00000000
     atom   65 type  2   force =     0.00000798    0.00000461    0.00000000
     atom   66 type  2   force =     0.00002390    0.00014881   -0.00000000
     atom   67 type  2   force =     0.00013308    0.00005410    0.00000000
     atom   68 type  2   force =     0.00006558   -0.00003786   -0.00000000
     atom   69 type  2   force =    -0.00000000    0.00007573   -0.00000000
     atom   70 type  2   force =     0.00011339    0.00008820    0.00000000
     atom   71 type  2   force =    -0.00000000   -0.00010188   -0.00000000
     atom   72 type  2   force =     0.00002858   -0.00013646   -0.00000000
     atom   73 type  2   force =    -0.00010389    0.00009298    0.00000000
     atom   74 type  2   force =    -0.00008823    0.00005094    0.00000000
     atom   75 type  2   force =     0.00001969   -0.00014230    0.00000000
     atom   76 type  2   force =    -0.00004708   -0.00002718   -0.00000000
     atom   77 type  2   force =    -0.00011339    0.00008820    0.00000000
     atom   78 type  2   force =    -0.00014083   -0.00005371    0.00000000
     atom   79 type  2   force =    -0.00002858   -0.00013646    0.00000000
     atom   80 type  2   force =     0.00000000    0.00000000    0.00000000
     atom   81 type  2   force =    -0.00013246    0.00004348    0.00000000
     atom   82 type  2   force =    -0.00011693   -0.00009510    0.00000000
     atom   83 type  2   force =    -0.00000481   -0.00007791    0.00000000
     atom   84 type  2   force =    -0.00006987    0.00003478    0.00000000
     atom   85 type  2   force =     0.00006671   -0.00001818    0.00000000
     atom   86 type  2   force =    -0.00000798    0.00000461    0.00000000
     atom   87 type  2   force =     0.00010389    0.00009298    0.00000000
     atom   88 type  2   force =     0.00013246    0.00004348    0.00000000
     atom   89 type  2   force =     0.00000000   -0.00000922   -0.00000000
     atom   90 type  2   force =     0.00001761    0.00006686   -0.00000000
     atom   91 type  2   force =     0.00013162    0.00007599    0.00000000
     atom   92 type  2   force =     0.00011530   -0.00006657   -0.00000000
     atom   93 type  2   force =     0.00004910   -0.00004868    0.00000000
     atom   94 type  2   force =    -0.00002390    0.00014881    0.00000000
     atom   95 type  2   force =     0.00008823    0.00005094    0.00000000
     atom   96 type  2   force =     0.00011693   -0.00009510    0.00000000
     atom   97 type  2   force =    -0.00001761    0.00006686   -0.00000000
     atom   98 type  2   force =     0.00000000    0.00013314   -0.00000000

     Total force =     0.001019     Total SCF correction =     0.000057


     Computing stress (Cartesian axis) and pressure


     negative rho (up, down):  7.677E-03 0.000E+00
          total   stress  (Ry/bohr**3)                   (kbar)     P=   -0.95
  -0.00000014  -0.00000000  -0.00000000         -0.02     -0.00     -0.00
  -0.00000000  -0.00000014  -0.00000000         -0.00     -0.02     -0.00
   0.00000000   0.00000000  -0.00001919          0.00      0.00     -2.82


     Writing output data file hBN.save/
 
     init_run     :     56.43s CPU     58.95s WALL (       2 calls)
     electrons    :   3716.15s CPU   3812.47s WALL (       6 calls)
     update_pot   :    126.71s CPU    129.88s WALL (       4 calls)
     forces       :    136.67s CPU    144.18s WALL (       6 calls)
     stress       :    371.74s CPU    377.74s WALL (       6 calls)

     Called by init_run:
     wfcinit      :     10.85s CPU     11.25s WALL (       2 calls)
     potinit      :     20.55s CPU     21.94s WALL (       2 calls)
     hinit0       :     19.53s CPU     19.67s WALL (       2 calls)

     Called by electrons:
     c_bands      :   3241.35s CPU   3275.48s WALL (      56 calls)
     sum_band     :    153.07s CPU    167.03s WALL (      56 calls)
     v_of_rho     :    189.72s CPU    225.96s WALL (      58 calls)
     newd         :     45.54s CPU     57.98s WALL (      58 calls)
     PAW_pot      :     96.48s CPU     96.80s WALL (      62 calls)
     mix_rho      :     13.26s CPU     13.91s WALL (      56 calls)

     Called by c_bands:
     init_us_2    :      3.60s CPU      3.70s WALL (     118 calls)
     rcgdiagg     :   3112.77s CPU   3143.51s WALL (      58 calls)
     wfcrot       :    137.42s CPU    141.00s WALL (      50 calls)

     Called by sum_band:
     sum_band:bec :      0.03s CPU      0.03s WALL (      60 calls)
     addusdens    :     48.56s CPU     60.12s WALL (      56 calls)

     Called by *cgdiagg:
     h_psi        :   1792.54s CPU   1819.98s WALL (   33784 calls)
     s_psi        :    855.86s CPU    859.49s WALL (   67518 calls)
     rdiaghg      :      0.60s CPU      0.65s WALL (      50 calls)

     Called by h_psi:
     h_psi:pot    :   1790.99s CPU   1818.40s WALL (   33784 calls)
     h_psi:calbec :    447.99s CPU    449.92s WALL (   33784 calls)
     vloc_psi     :    916.33s CPU    940.19s WALL (   33784 calls)
     add_vuspsi   :    426.16s CPU    427.91s WALL (   33784 calls)
     hs_1psi      :   2090.19s CPU   2116.14s WALL (   33734 calls)
     s_1psi       :    876.26s CPU    879.70s WALL (   33734 calls)

     General routines
     calbec       :    903.19s CPU    907.27s WALL (   67608 calls)
     fft          :    199.95s CPU    244.42s WALL (     754 calls)
     ffts         :      1.84s CPU      2.00s WALL (     114 calls)
     fftw         :    669.33s CPU    693.01s WALL (   83148 calls)
     interpolate  :      7.15s CPU      7.57s WALL (      58 calls)
     davcio       :      0.00s CPU      0.18s WALL (       5 calls)
 
     Parallel routines
     fft_scatt_xy :    125.69s CPU    126.52s WALL (   84016 calls)
     fft_scatt_yz :    227.45s CPU    291.52s WALL (   84016 calls)
 
     PWSCF        :      1h13m CPU      1h15m WALL

 
   This run was terminated on:  13:12: 6   5Jun2021            

=------------------------------------------------------------------------------=
   JOB DONE.
=------------------------------------------------------------------------------=
