
     Program PWSCF v.6.4.1 starts on  7Jun2021 at 23:43:50 

     This program is part of the open-source Quantum ESPRESSO suite
     for quantum simulation of materials; please cite
         "P. Giannozzi et al., J. Phys.:Condens. Matter 21 395502 (2009);
         "P. Giannozzi et al., J. Phys.:Condens. Matter 29 465901 (2017);
          URL http://www.quantum-espresso.org", 
     in publications or presentations arising from this work. More details at
     http://www.quantum-espresso.org/quote

     Parallel version (MPI), running on    64 processors

     MPI processes distributed on     2 nodes
     R & G space division:  proc/nbgrp/npool/nimage =      64
     Waiting for input...
     Reading input from standard input

     Current dimensions of program PWSCF are:
     Max number of different atomic species (ntypx) = 10
     Max number of k-points (npk) =  40000
     Max angular momentum in pseudopotentials (lmaxx) =  3
               file N.pbe-n-kjpaw_psl.1.0.0.UPF: wavefunction(s)  2S renormalized
               file C.pbe-n-kjpaw_psl.1.0.0.UPF: wavefunction(s)  2S 2P renormalized
               file C.pbe-n-kjpaw_psl.1.0.0.UPF: wavefunction(s)  2S 2P renormalized
               file C.pbe-n-kjpaw_psl.1.0.0.UPF: wavefunction(s)  2S 2P renormalized

     --------------------------------------------
     Parameters for DFT-D3 Dispersion Correction:
     --------------------------------------------
       Reference C6 values for interpolation: 

         atom   Coordination number   C6
         B          0.000           214.36
         B          0.971           150.74
         B          1.944           106.23
         B          2.913            62.89
         B          4.586            56.06
         C1         0.000            98.23
         C1         0.987            86.49
         C1         1.998            58.72
         C1         2.999            51.56
         C1         3.984            36.41
         C2         0.000            98.23
         C2         0.987            86.49
         C2         1.998            58.72
         C2         2.999            51.56
         C2         3.984            36.41
         C3         0.000            98.23
         C3         0.987            86.49
         C3         1.998            58.72
         C3         2.999            51.56
         C3         3.984            36.41
         N          0.000            50.54
         N          0.994            44.25
         N          2.014            39.35
         N          2.990            31.16

       Values used:

         atom   Coordination number  R0_AB[au]  C6      C8
         B          3.323            3.039     62.90   2506.30
         B          3.323            3.039     62.90   2506.30
         B          3.323            3.039     62.90   2506.30
         B          3.323            3.039     62.90   2506.31
         B          3.323            3.039     62.90   2506.30
         B          3.323            3.039     62.90   2506.30
         B          3.323            3.039     62.90   2506.30
         B          3.323            3.039     62.90   2506.30
         B          3.323            3.039     62.90   2506.30
         B          3.325            3.039     62.90   2506.25
         B          3.323            3.039     62.90   2506.30
         B          3.323            3.039     62.90   2506.30
         B          3.323            3.039     62.90   2506.30
         B          3.323            3.039     62.90   2506.30
         B          3.323            3.039     62.90   2506.30
         B          3.323            3.039     62.90   2506.30
         B          3.317            3.039     62.90   2506.45
         B          3.319            3.039     62.90   2506.40
         B          3.323            3.039     62.90   2506.29
         B          3.323            3.039     62.90   2506.30
         B          3.323            3.039     62.90   2506.30
         B          3.323            3.039     62.90   2506.30
         B          3.323            3.039     62.90   2506.30
         B          3.317            3.039     62.90   2506.43
         C2         3.274            2.750     49.03   1417.98
         B          3.319            3.039     62.90   2506.40
         B          3.323            3.039     62.90   2506.30
         B          3.323            3.039     62.90   2506.31
         B          3.323            3.039     62.90   2506.30
         B          3.323            3.039     62.90   2506.30
         B          3.323            3.039     62.90   2506.30
         B          3.317            3.039     62.90   2506.43
         B          3.317            3.039     62.90   2506.45
         B          3.325            3.039     62.90   2506.25
         B          3.323            3.039     62.90   2506.30
         B          3.323            3.039     62.90   2506.30
         B          3.323            3.039     62.90   2506.30
         B          3.323            3.039     62.90   2506.30
         B          3.323            3.039     62.90   2506.30
         B          3.323            3.039     62.90   2506.30
         B          3.323            3.039     62.90   2506.30
         B          3.323            3.039     62.90   2506.30
         B          3.323            3.039     62.90   2506.30
         B          3.323            3.039     62.90   2506.30
         B          3.323            3.039     62.90   2506.30
         B          3.323            3.039     62.90   2506.30
         B          3.323            3.039     62.90   2506.30
         B          3.323            3.039     62.90   2506.30
         B          3.323            3.039     62.90   2506.30
         N          3.129            2.478     31.22    688.75
         N          3.129            2.478     31.22    688.75
         N          3.129            2.478     31.22    688.75
         N          3.129            2.478     31.22    688.75
         N          3.129            2.478     31.22    688.75
         N          3.129            2.478     31.22    688.75
         N          3.129            2.478     31.22    688.75
         N          3.129            2.478     31.22    688.75
         N          3.129            2.478     31.22    688.75
         N          3.136            2.478     31.22    688.68
         N          3.136            2.478     31.22    688.68
         N          3.129            2.478     31.22    688.75
         N          3.129            2.478     31.22    688.75
         N          3.129            2.478     31.22    688.75
         N          3.129            2.478     31.22    688.75
         N          3.129            2.478     31.22    688.75
         N          3.135            2.478     31.22    688.68
         C1         3.195            2.750     50.11   1449.31
         N          3.143            2.478     31.21    688.62
         N          3.129            2.478     31.22    688.75
         N          3.129            2.478     31.22    688.75
         N          3.129            2.478     31.22    688.75
         N          3.129            2.478     31.22    688.75
         N          3.129            2.478     31.22    688.75
         N          3.143            2.478     31.21    688.62
         C3         3.195            2.750     50.11   1449.31
         N          3.136            2.478     31.22    688.68
         N          3.129            2.478     31.22    688.75
         N          3.129            2.478     31.22    688.75
         N          3.129            2.478     31.22    688.75
         N          3.129            2.478     31.22    688.75
         N          3.129            2.478     31.22    688.75
         N          3.135            2.478     31.22    688.68
         N          3.136            2.478     31.22    688.68
         N          3.129            2.478     31.22    688.75
         N          3.129            2.478     31.22    688.75
         N          3.129            2.478     31.22    688.75
         N          3.129            2.478     31.22    688.75
         N          3.129            2.478     31.22    688.75
         N          3.129            2.478     31.22    688.75
         N          3.129            2.478     31.22    688.75
         N          3.129            2.478     31.22    688.75
         N          3.129            2.478     31.22    688.75
         N          3.129            2.478     31.22    688.75
         N          3.129            2.478     31.22    688.75
         N          3.129            2.478     31.22    688.75
         N          3.129            2.478     31.22    688.75
         N          3.129            2.478     31.22    688.75
         N          3.129            2.478     31.22    688.75

         Molecular C6 ( Ry / a.u.^6 ) =    437644.59


     gamma-point specific algorithms are used

     Subspace diagonalization in iterative solution of the eigenvalue problem:
     one sub-group per band group will be used
     scalapack distributed-memory algorithm (size of sub-group:  5*  5 procs)

     Message from routine setup:
     DEPRECATED: symmetry with ibrav=0, use correct ibrav instead
 
     Parallelization info
     --------------------
     sticks:   dense  smooth     PW     G-vecs:    dense   smooth      PW
     Min         188     188     46                19260    19260    2398
     Max         190     190     48                19286    19286    2416
     Sum       12145   12145   3049              1233789  1233789  154157
 


     bravais-lattice index     =            0
     lattice parameter (alat)  =      33.2346  a.u.
     unit-cell volume          =   36104.5892 (a.u.)^3
     number of atoms/cell      =           98
     number of atomic types    =            5
     number of electrons       =       391.00
     number of Kohn-Sham states=          245
     kinetic-energy cutoff     =      40.0000  Ry
     charge density cutoff     =     160.0000  Ry
     convergence threshold     =      1.0E-06
     mixing beta               =       0.7000
     number of iterations used =            8  plain     mixing
     Exchange-correlation      = SLA PW PBX PBC ( 1  4  3  4 0 0)
     Using LIBXC version       =    4   3   4
     nstep                     =           50


     celldm(1)=  33.234611  celldm(2)=   0.000000  celldm(3)=   0.000000
     celldm(4)=   0.000000  celldm(5)=   0.000000  celldm(6)=   0.000000

     crystal axes: (cart. coord. in units of alat)
               a(1) = (   0.999334   0.000000   0.000000 )  
               a(2) = (  -0.499667   0.865449   0.000000 )  
               a(3) = (   0.000000   0.000000   1.137204 )  

     reciprocal axes: (cart. coord. in units 2 pi/alat)
               b(1) = (  1.000666  0.577735  0.000000 )  
               b(2) = (  0.000000  1.155470  0.000000 )  
               b(3) = (  0.000000  0.000000  0.879350 )  


     PseudoPot. # 1 for B  read from file:
     ./pseudo/B.pbe-n-kjpaw_psl.1.0.0.UPF
     MD5 check sum: 8c825a5969375aca5c2c6ad5945b3059
     Pseudo is Projector augmented-wave + core cor, Zval =  3.0
     Generated using "atomic" code by A. Dal Corso v.6.3
     Shape of augmentation charge: PSQ
     Using radial grid of 1059 points,  4 beta functions with: 
                l(1) =   0
                l(2) =   0
                l(3) =   1
                l(4) =   1
     Q(r) pseudized with 0 coefficients 


     PseudoPot. # 2 for N  read from file:
     ./pseudo/N.pbe-n-kjpaw_psl.1.0.0.UPF
     MD5 check sum: 14c48229446f9f2d411169a3abcbc3fa
     Pseudo is Projector augmented-wave + core cor, Zval =  5.0
     Generated using "atomic" code by A. Dal Corso v.6.3
     Shape of augmentation charge: PSQ
     Using radial grid of 1085 points,  4 beta functions with: 
                l(1) =   0
                l(2) =   0
                l(3) =   1
                l(4) =   1
     Q(r) pseudized with 0 coefficients 


     PseudoPot. # 3 for C  read from file:
     ./pseudo/C.pbe-n-kjpaw_psl.1.0.0.UPF
     MD5 check sum: 5f16ad9a65e90284d1d834d4ab3b0f7d
     Pseudo is Projector augmented-wave + core cor, Zval =  4.0
     Generated using "atomic" code by A. Dal Corso v.6.3
     Shape of augmentation charge: PSQ
     Using radial grid of 1073 points,  4 beta functions with: 
                l(1) =   0
                l(2) =   0
                l(3) =   1
                l(4) =   1
     Q(r) pseudized with 0 coefficients 


     PseudoPot. # 4 for C  read from file:
     ./pseudo/C.pbe-n-kjpaw_psl.1.0.0.UPF
     MD5 check sum: 5f16ad9a65e90284d1d834d4ab3b0f7d
     Pseudo is Projector augmented-wave + core cor, Zval =  4.0
     Generated using "atomic" code by A. Dal Corso v.6.3
     Shape of augmentation charge: PSQ
     Using radial grid of 1073 points,  4 beta functions with: 
                l(1) =   0
                l(2) =   0
                l(3) =   1
                l(4) =   1
     Q(r) pseudized with 0 coefficients 


     PseudoPot. # 5 for C  read from file:
     ./pseudo/C.pbe-n-kjpaw_psl.1.0.0.UPF
     MD5 check sum: 5f16ad9a65e90284d1d834d4ab3b0f7d
     Pseudo is Projector augmented-wave + core cor, Zval =  4.0
     Generated using "atomic" code by A. Dal Corso v.6.3
     Shape of augmentation charge: PSQ
     Using radial grid of 1073 points,  4 beta functions with: 
                l(1) =   0
                l(2) =   0
                l(3) =   1
                l(4) =   1
     Q(r) pseudized with 0 coefficients 


     atomic species   valence    mass     pseudopotential
        B              3.00    10.00000     B ( 1.00)
        N              5.00    14.00000     N ( 1.00)
        C1             4.00    12.00000     C ( 1.00)
        C2             4.00    12.00000     C ( 1.00)
        C3             4.00    12.00000     C ( 1.00)

     Starting magnetic structure 
     atomic species   magnetization
        B            0.000
        N            0.000
        C1           1.000
        C2           0.000
        C3           0.000

      2 Sym. Ops. (no inversion) found



   Cartesian axes

     site n.     atom                  positions (alat units)
         1           B   tau(   1) = (  -0.0000000   0.0824309   0.5686018  )
         2           B   tau(   2) = (  -0.0713829   0.2060622   0.5686018  )
         3           B   tau(   3) = (  -0.1427568   0.3296890   0.5686018  )
         4           B   tau(   4) = (  -0.2141395   0.4533331   0.5686018  )
         5           B   tau(   5) = (  -0.2855266   0.5769736   0.5686018  )
         6           B   tau(   6) = (  -0.3569036   0.7005986   0.5686018  )
         7           B   tau(   7) = (  -0.4282799   0.8242336   0.5686018  )
         8           B   tau(   8) = (   0.1427700   0.0824283   0.5686018  )
         9           B   tau(   9) = (   0.0713829   0.2060622   0.5686018  )
        10           B   tau(  10) = (  -0.0000000   0.3296942   0.5686018  )
        11           B   tau(  11) = (  -0.0713745   0.4533335   0.5686018  )
        12           B   tau(  12) = (  -0.1427567   0.5769711   0.5686018  )
        13           B   tau(  13) = (  -0.2141437   0.7006019   0.5686018  )
        14           B   tau(  14) = (  -0.2855207   0.8242373   0.5686018  )
        15           B   tau(  15) = (   0.2855205   0.0824268   0.5686018  )
        16           B   tau(  16) = (   0.2141440   0.2060546   0.5686018  )
        17           B   tau(  17) = (   0.1427568   0.3296890   0.5686018  )
        18           B   tau(  18) = (   0.0713735   0.4533335   0.5686018  )
        19           B   tau(  19) = (  -0.0000005   0.5769663   0.5686018  )
        20           B   tau(  20) = (  -0.0713827   0.7005944   0.5686018  )
        21           B   tau(  21) = (  -0.1427698   0.8242355   0.5686018  )
        22           B   tau(  22) = (   0.4282797   0.0824299   0.5686018  )
        23           B   tau(  23) = (   0.3569027   0.2060579   0.5686018  )
        24           B   tau(  24) = (   0.2855263   0.3296861   0.5686018  )
        25           C2  tau(  25) = (   0.2141385   0.4533331   0.5686018  )
        26           B   tau(  26) = (   0.1427557   0.5769711   0.5686018  )
        27           B   tau(  27) = (   0.0713817   0.7005944   0.5686018  )
        28           B   tau(  28) = (  -0.0000005   0.8242327   0.5686018  )
        29           B   tau(  29) = (   0.5710548   0.0824299   0.5686018  )
        30           B   tau(  30) = (   0.4996677   0.2060636   0.5686018  )
        31           B   tau(  31) = (   0.4282907   0.3296923   0.5686018  )
        32           B   tau(  32) = (   0.3569138   0.4533330   0.5686018  )
        33           B   tau(  33) = (   0.2855266   0.5769736   0.5686018  )
        34           B   tau(  34) = (   0.2141437   0.7006019   0.5686018  )
        35           B   tau(  35) = (   0.1427698   0.8242355   0.5686018  )
        36           B   tau(  36) = (   0.7138140   0.0824268   0.5686018  )
        37           B   tau(  37) = (   0.6424318   0.2060579   0.5686018  )
        38           B   tau(  38) = (   0.5710448   0.3296923   0.5686018  )
        39           B   tau(  39) = (   0.4996672   0.4533333   0.5686018  )
        40           B   tau(  40) = (   0.4282907   0.5769676   0.5686018  )
        41           B   tau(  41) = (   0.3569036   0.7005986   0.5686018  )
        42           B   tau(  42) = (   0.2855207   0.8242373   0.5686018  )
        43           B   tau(  43) = (   0.8565645   0.0824283   0.5686018  )
        44           B   tau(  44) = (   0.7851905   0.2060546   0.5686018  )
        45           B   tau(  45) = (   0.7138082   0.3296861   0.5686018  )
        46           B   tau(  46) = (   0.6424207   0.4533330   0.5686018  )
        47           B   tau(  47) = (   0.5710438   0.5769676   0.5686018  )
        48           B   tau(  48) = (   0.4996672   0.7005925   0.5686018  )
        49           B   tau(  49) = (   0.4282799   0.8242336   0.5686018  )
        50           N   tau(  50) = (   0.0713853   0.0412143   0.5686018  )
        51           N   tau(  51) = (   0.0000000   0.1648537   0.5686018  )
        52           N   tau(  52) = (  -0.0713781   0.2884819   0.5686018  )
        53           N   tau(  53) = (  -0.1427563   0.4121169   0.5686018  )
        54           N   tau(  54) = (  -0.2141417   0.5357601   0.5686018  )
        55           N   tau(  55) = (  -0.2855237   0.6593929   0.5686018  )
        56           N   tau(  56) = (  -0.3568998   0.7830222   0.5686018  )
        57           N   tau(  57) = (   0.2141455   0.0412121   0.5686018  )
        58           N   tau(  58) = (   0.1427635   0.1648494   0.5686018  )
        59           N   tau(  59) = (   0.0713781   0.2884819   0.5686018  )
        60           N   tau(  60) = (   0.0000000   0.4121169   0.5686018  )
        61           N   tau(  61) = (  -0.0713787   0.5357561   0.5686018  )
        62           N   tau(  62) = (  -0.1427636   0.6593906   0.5686018  )
        63           N   tau(  63) = (  -0.2141456   0.7830234   0.5686018  )
        64           N   tau(  64) = (   0.3568998   0.0412132   0.5686018  )
        65           N   tau(  65) = (   0.2855237   0.1648472   0.5686018  )
        66           N   tau(  66) = (   0.2141416   0.2884777   0.5686018  )
        67           C1  tau(  67) = (   0.1427563   0.4121169   0.5686018  )
        68           N   tau(  68) = (   0.0713777   0.5357561   0.5686018  )
        69           N   tau(  69) = (  -0.0000005   0.6593868   0.5686018  )
        70           N   tau(  70) = (  -0.0713854   0.7830212   0.5686018  )
        71           N   tau(  71) = (   0.4996677   0.0412149   0.5686018  )
        72           N   tau(  72) = (   0.4282857   0.1648522   0.5686018  )
        73           N   tau(  73) = (   0.3569096   0.2884793   0.5686018  )
        74           N   tau(  74) = (   0.2855275   0.4121166   0.5686018  )
        75           C3  tau(  75) = (   0.2141417   0.5357601   0.5686018  )
        76           N   tau(  76) = (   0.1427636   0.6593906   0.5686018  )
        77           N   tau(  77) = (   0.0713854   0.7830212   0.5686018  )
        78           N   tau(  78) = (   0.6424346   0.0412132   0.5686018  )
        79           N   tau(  79) = (   0.5710498   0.1648522   0.5686018  )
        80           N   tau(  80) = (   0.4996677   0.2884827   0.5686018  )
        81           N   tau(  81) = (   0.4282916   0.4121166   0.5686018  )
        82           N   tau(  82) = (   0.3569090   0.5357581   0.5686018  )
        83           N   tau(  83) = (   0.2855237   0.6593929   0.5686018  )
        84           N   tau(  84) = (   0.2141456   0.7830234   0.5686018  )
        85           N   tau(  85) = (   0.7851890   0.0412121   0.5686018  )
        86           N   tau(  86) = (   0.7138108   0.1648472   0.5686018  )
        87           N   tau(  87) = (   0.6424259   0.2884793   0.5686018  )
        88           N   tau(  88) = (   0.5710439   0.4121166   0.5686018  )
        89           N   tau(  89) = (   0.4996672   0.5357547   0.5686018  )
        90           N   tau(  90) = (   0.4282852   0.6593876   0.5686018  )
        91           N   tau(  91) = (   0.3568998   0.7830222   0.5686018  )
        92           N   tau(  92) = (   0.9279491   0.0412143   0.5686018  )
        93           N   tau(  93) = (   0.8565710   0.1648494   0.5686018  )
        94           N   tau(  94) = (   0.7851929   0.2884777   0.5686018  )
        95           N   tau(  95) = (   0.7138080   0.4121166   0.5686018  )
        96           N   tau(  96) = (   0.6424255   0.5357581   0.5686018  )
        97           N   tau(  97) = (   0.5710493   0.6593876   0.5686018  )
        98           N   tau(  98) = (   0.4996672   0.7830203   0.5686018  )

     number of k points=     1
                       cart. coord. in units 2pi/alat
        k(    1) = (   0.0000000   0.0000000   0.0000000), wk =   1.0000000

     Dense  grid:   616895 G-vectors     FFT dimensions: ( 135, 135, 160)

     Occupations read from input 

      Spin-up

        1.0000   1.0000   1.0000   1.0000   1.0000   1.0000   1.0000   1.0000
        1.0000   1.0000   1.0000   1.0000   1.0000   1.0000   1.0000   1.0000
        1.0000   1.0000   1.0000   1.0000   1.0000   1.0000   1.0000   1.0000
        1.0000   1.0000   1.0000   1.0000   1.0000   1.0000   1.0000   1.0000
        1.0000   1.0000   1.0000   1.0000   1.0000   1.0000   1.0000   1.0000
        1.0000   1.0000   1.0000   1.0000   1.0000   1.0000   1.0000   1.0000
        1.0000   1.0000   1.0000   1.0000   1.0000   1.0000   1.0000   1.0000
        1.0000   1.0000   1.0000   1.0000   1.0000   1.0000   1.0000   1.0000
        1.0000   1.0000   1.0000   1.0000   1.0000   1.0000   1.0000   1.0000
        1.0000   1.0000   1.0000   1.0000   1.0000   1.0000   1.0000   1.0000
        1.0000   1.0000   1.0000   1.0000   1.0000   1.0000   1.0000   1.0000
        1.0000   1.0000   1.0000   1.0000   1.0000   1.0000   1.0000   1.0000
        1.0000   1.0000   1.0000   1.0000   1.0000   1.0000   1.0000   1.0000
        1.0000   1.0000   1.0000   1.0000   1.0000   1.0000   1.0000   1.0000
        1.0000   1.0000   1.0000   1.0000   1.0000   1.0000   1.0000   1.0000
        1.0000   1.0000   1.0000   1.0000   1.0000   1.0000   1.0000   1.0000
        1.0000   1.0000   1.0000   1.0000   1.0000   1.0000   1.0000   1.0000
        1.0000   1.0000   1.0000   1.0000   1.0000   1.0000   1.0000   1.0000
        1.0000   1.0000   1.0000   1.0000   1.0000   1.0000   1.0000   1.0000
        1.0000   1.0000   1.0000   1.0000   1.0000   1.0000   1.0000   1.0000
        1.0000   1.0000   1.0000   1.0000   1.0000   1.0000   1.0000   1.0000
        1.0000   1.0000   1.0000   1.0000   1.0000   1.0000   1.0000   1.0000
        1.0000   1.0000   1.0000   1.0000   1.0000   1.0000   1.0000   1.0000
        1.0000   1.0000   1.0000   1.0000   1.0000   1.0000   1.0000   1.0000
        1.0000   1.0000   1.0000   1.0000   1.0000   0.0000   0.0000   0.0000
        0.0000   0.0000   0.0000   0.0000   0.0000   0.0000   0.0000   0.0000
        0.0000   0.0000   0.0000   0.0000   0.0000   0.0000   0.0000   0.0000
        0.0000   0.0000   0.0000   0.0000   0.0000   0.0000   0.0000   0.0000
        0.0000   0.0000   0.0000   0.0000   0.0000   0.0000   0.0000   0.0000
        0.0000   0.0000   0.0000   0.0000   0.0000   0.0000   0.0000   0.0000
        0.0000   0.0000   0.0000   0.0000   0.0000

      Spin-down

        1.0000   1.0000   1.0000   1.0000   1.0000   1.0000   1.0000   1.0000
        1.0000   1.0000   1.0000   1.0000   1.0000   1.0000   1.0000   1.0000
        1.0000   1.0000   1.0000   1.0000   1.0000   1.0000   1.0000   1.0000
        1.0000   1.0000   1.0000   1.0000   1.0000   1.0000   1.0000   1.0000
        1.0000   1.0000   1.0000   1.0000   1.0000   1.0000   1.0000   1.0000
        1.0000   1.0000   1.0000   1.0000   1.0000   1.0000   1.0000   1.0000
        1.0000   1.0000   1.0000   1.0000   1.0000   1.0000   1.0000   1.0000
        1.0000   1.0000   1.0000   1.0000   1.0000   1.0000   1.0000   1.0000
        1.0000   1.0000   1.0000   1.0000   1.0000   1.0000   1.0000   1.0000
        1.0000   1.0000   1.0000   1.0000   1.0000   1.0000   1.0000   1.0000
        1.0000   1.0000   1.0000   1.0000   1.0000   1.0000   1.0000   1.0000
        1.0000   1.0000   1.0000   1.0000   1.0000   1.0000   1.0000   1.0000
        1.0000   1.0000   1.0000   1.0000   1.0000   1.0000   1.0000   1.0000
        1.0000   1.0000   1.0000   1.0000   1.0000   1.0000   1.0000   1.0000
        1.0000   1.0000   1.0000   1.0000   1.0000   1.0000   1.0000   1.0000
        1.0000   1.0000   1.0000   1.0000   1.0000   1.0000   1.0000   1.0000
        1.0000   1.0000   1.0000   1.0000   1.0000   1.0000   1.0000   1.0000
        1.0000   1.0000   1.0000   1.0000   1.0000   1.0000   1.0000   1.0000
        1.0000   1.0000   1.0000   1.0000   1.0000   1.0000   1.0000   1.0000
        1.0000   1.0000   1.0000   1.0000   1.0000   1.0000   1.0000   1.0000
        1.0000   1.0000   1.0000   1.0000   1.0000   1.0000   1.0000   1.0000
        1.0000   1.0000   1.0000   1.0000   1.0000   1.0000   1.0000   1.0000
        1.0000   1.0000   1.0000   1.0000   1.0000   1.0000   1.0000   1.0000
        1.0000   1.0000   1.0000   1.0000   1.0000   1.0000   1.0000   1.0000
        1.0000   1.0000   0.0000   0.0000   0.0000   0.0000   0.0000   0.0000
        0.0000   0.0000   0.0000   0.0000   0.0000   0.0000   0.0000   0.0000
        0.0000   0.0000   0.0000   0.0000   0.0000   0.0000   0.0000   0.0000
        0.0000   0.0000   0.0000   0.0000   0.0000   0.0000   0.0000   0.0000
        0.0000   0.0000   0.0000   0.0000   0.0000   0.0000   0.0000   0.0000
        0.0000   0.0000   0.0000   0.0000   0.0000   0.0000   0.0000   0.0000
        0.0000   0.0000   0.0000   0.0000   0.0000

     Estimated max dynamical RAM per process >     122.14 MB

     Estimated total dynamical RAM >       7.63 GB
     Generating pointlists ...
     new r_m :   0.0340 (alat units)  1.1299 (a.u.) for type    1
     new r_m :   0.0340 (alat units)  1.1299 (a.u.) for type    2
     new r_m :   0.0340 (alat units)  1.1300 (a.u.) for type    3
     new r_m :   0.0340 (alat units)  1.1300 (a.u.) for type    4
     new r_m :   0.0340 (alat units)  1.1300 (a.u.) for type    5

     Check: negative core charge=   -0.000006

     Initial potential from superposition of free atoms

     starting charge  390.98597, renormalised to  391.00000

     negative rho (up, down):  5.431E-02 5.945E-02
     Starting wfcs are  392 randomized atomic wfcs
     Checking if some PAW data can be deallocated... 

     total cpu time spent up to now is        9.0 secs

     Self-consistent Calculation

     iteration #  1     ecut=    40.00 Ry     beta= 0.70
     CG style diagonalization
     ethr =  1.00E-02,  avg # of iterations =  3.1

     negative rho (up, down):  3.279E-01 1.427E-02

     total cpu time spent up to now is       49.9 secs

     total energy              =   -1933.22233616 Ry
     Harris-Foulkes estimate   =   -1946.31038162 Ry
     estimated scf accuracy    <      19.88158022 Ry

     total magnetization       =     3.00 Bohr mag/cell
     absolute magnetization    =     3.27 Bohr mag/cell

     iteration #  2     ecut=    40.00 Ry     beta= 0.70
     CG style diagonalization
     ethr =  5.08E-03,  avg # of iterations =  4.0

     negative rho (up, down):  3.646E-01 1.168E-02

     total cpu time spent up to now is       89.7 secs

     total energy              =   -1937.45249743 Ry
     Harris-Foulkes estimate   =   -1943.56322752 Ry
     estimated scf accuracy    <      11.92479833 Ry

     total magnetization       =     3.00 Bohr mag/cell
     absolute magnetization    =     3.21 Bohr mag/cell

     iteration #  3     ecut=    40.00 Ry     beta= 0.70
     CG style diagonalization
     ethr =  3.05E-03,  avg # of iterations =  3.8

     negative rho (up, down):  4.078E-01 1.271E-02

     total cpu time spent up to now is      126.5 secs

     total energy              =   -1939.60201886 Ry
     Harris-Foulkes estimate   =   -1940.35272020 Ry
     estimated scf accuracy    <       1.38250964 Ry

     total magnetization       =     3.00 Bohr mag/cell
     absolute magnetization    =     3.20 Bohr mag/cell

     iteration #  4     ecut=    40.00 Ry     beta= 0.70
     CG style diagonalization
     c_bands:  1 eigenvalues not converged
     c_bands:  1 eigenvalues not converged
     ethr =  3.54E-04,  avg # of iterations =  4.1

     negative rho (up, down):  4.536E-01 1.175E-02

     total cpu time spent up to now is      168.3 secs

     total energy              =   -1939.81409929 Ry
     Harris-Foulkes estimate   =   -1940.49193785 Ry
     estimated scf accuracy    <       2.34167010 Ry

     total magnetization       =     3.00 Bohr mag/cell
     absolute magnetization    =     3.21 Bohr mag/cell

     iteration #  5     ecut=    40.00 Ry     beta= 0.70
     CG style diagonalization
     c_bands:  1 eigenvalues not converged
     ethr =  3.54E-04,  avg # of iterations =  3.3

     negative rho (up, down):  4.645E-01 1.138E-02

     total cpu time spent up to now is      199.7 secs

     total energy              =   -1940.12888048 Ry
     Harris-Foulkes estimate   =   -1940.19993604 Ry
     estimated scf accuracy    <       0.19991705 Ry

     total magnetization       =     3.00 Bohr mag/cell
     absolute magnetization    =     3.19 Bohr mag/cell

     iteration #  6     ecut=    40.00 Ry     beta= 0.70
     CG style diagonalization
     c_bands:  3 eigenvalues not converged
     c_bands:  2 eigenvalues not converged
     ethr =  5.11E-05,  avg # of iterations =  3.7

     negative rho (up, down):  4.711E-01 1.149E-02

     total cpu time spent up to now is      236.2 secs

     total energy              =   -1940.15403883 Ry
     Harris-Foulkes estimate   =   -1940.16137174 Ry
     estimated scf accuracy    <       0.03502046 Ry

     total magnetization       =     3.00 Bohr mag/cell
     absolute magnetization    =     3.18 Bohr mag/cell

     iteration #  7     ecut=    40.00 Ry     beta= 0.70
     CG style diagonalization
     c_bands:  4 eigenvalues not converged
     c_bands:  5 eigenvalues not converged
     ethr =  8.96E-06,  avg # of iterations =  4.1

     negative rho (up, down):  4.814E-01 1.209E-02

     total cpu time spent up to now is      277.3 secs

     total energy              =   -1940.15981347 Ry
     Harris-Foulkes estimate   =   -1940.16131463 Ry
     estimated scf accuracy    <       0.01421209 Ry

     total magnetization       =     3.00 Bohr mag/cell
     absolute magnetization    =     3.17 Bohr mag/cell

     iteration #  8     ecut=    40.00 Ry     beta= 0.70
     CG style diagonalization
     c_bands:  3 eigenvalues not converged
     c_bands:  5 eigenvalues not converged
     ethr =  3.63E-06,  avg # of iterations =  5.9

     negative rho (up, down):  4.845E-01 1.228E-02

     total cpu time spent up to now is      334.2 secs

     total energy              =   -1940.16257955 Ry
     Harris-Foulkes estimate   =   -1940.16316466 Ry
     estimated scf accuracy    <       0.00220104 Ry

     total magnetization       =     3.00 Bohr mag/cell
     absolute magnetization    =     3.17 Bohr mag/cell

     iteration #  9     ecut=    40.00 Ry     beta= 0.70
     CG style diagonalization
     c_bands:  4 eigenvalues not converged
     c_bands:  4 eigenvalues not converged
     ethr =  5.63E-07,  avg # of iterations =  4.1

     negative rho (up, down):  4.860E-01 1.245E-02

     total cpu time spent up to now is      375.0 secs

     total energy              =   -1940.16333014 Ry
     Harris-Foulkes estimate   =   -1940.16335697 Ry
     estimated scf accuracy    <       0.00068191 Ry

     total magnetization       =     3.00 Bohr mag/cell
     absolute magnetization    =     3.16 Bohr mag/cell

     iteration # 10     ecut=    40.00 Ry     beta= 0.70
     CG style diagonalization
     c_bands:  2 eigenvalues not converged
     c_bands:  1 eigenvalues not converged
     ethr =  1.74E-07,  avg # of iterations =  3.7

     negative rho (up, down):  4.864E-01 1.254E-02

     total cpu time spent up to now is      411.5 secs

     total energy              =   -1940.16350351 Ry
     Harris-Foulkes estimate   =   -1940.16351935 Ry
     estimated scf accuracy    <       0.00015488 Ry

     total magnetization       =     3.00 Bohr mag/cell
     absolute magnetization    =     3.16 Bohr mag/cell

     iteration # 11     ecut=    40.00 Ry     beta= 0.70
     CG style diagonalization
     ethr =  3.96E-08,  avg # of iterations =  3.5

     negative rho (up, down):  4.863E-01 1.255E-02

     total cpu time spent up to now is      445.3 secs

     total energy              =   -1940.16355236 Ry
     Harris-Foulkes estimate   =   -1940.16354834 Ry
     estimated scf accuracy    <       0.00002630 Ry

     total magnetization       =     3.00 Bohr mag/cell
     absolute magnetization    =     3.16 Bohr mag/cell

     iteration # 12     ecut=    40.00 Ry     beta= 0.70
     CG style diagonalization
     ethr =  6.73E-09,  avg # of iterations =  3.8

     negative rho (up, down):  4.865E-01 1.258E-02

     total cpu time spent up to now is      481.9 secs

     total energy              =   -1940.16356331 Ry
     Harris-Foulkes estimate   =   -1940.16356346 Ry
     estimated scf accuracy    <       0.00001046 Ry

     total magnetization       =     3.00 Bohr mag/cell
     absolute magnetization    =     3.17 Bohr mag/cell

     iteration # 13     ecut=    40.00 Ry     beta= 0.70
     CG style diagonalization
     ethr =  2.68E-09,  avg # of iterations =  3.6

     negative rho (up, down):  4.864E-01 1.255E-02

     total cpu time spent up to now is      516.5 secs

     total energy              =   -1940.16356729 Ry
     Harris-Foulkes estimate   =   -1940.16356653 Ry
     estimated scf accuracy    <       0.00000106 Ry

     total magnetization       =     3.00 Bohr mag/cell
     absolute magnetization    =     3.17 Bohr mag/cell

     iteration # 14     ecut=    40.00 Ry     beta= 0.70
     CG style diagonalization
     ethr =  2.71E-10,  avg # of iterations =  4.0

     negative rho (up, down):  4.863E-01 1.253E-02
 
     Magnetic moment per site:
     atom:    1    charge:    0.8803    magn:   -0.0000    constr:    0.0000
     atom:    2    charge:    0.8815    magn:    0.0015    constr:    0.0000
     atom:    3    charge:    0.8805    magn:    0.0012    constr:    0.0000
     atom:    4    charge:    0.8797    magn:    0.0001    constr:    0.0000
     atom:    5    charge:    0.8804    magn:    0.0005    constr:    0.0000
     atom:    6    charge:    0.8813    magn:    0.0000    constr:    0.0000
     atom:    7    charge:    0.8804    magn:    0.0007    constr:    0.0000
     atom:    8    charge:    0.8823    magn:    0.0006    constr:    0.0000
     atom:    9    charge:    0.8826    magn:    0.0004    constr:    0.0000
     atom:   10    charge:    0.8831    magn:    0.0075    constr:    0.0000
     atom:   11    charge:    0.8820    magn:    0.0007    constr:    0.0000
     atom:   12    charge:    0.8815    magn:    0.0003    constr:    0.0000
     atom:   13    charge:    0.8820    magn:    0.0000    constr:    0.0000
     atom:   14    charge:    0.8813    magn:    0.0000    constr:    0.0000
     atom:   15    charge:    0.8825    magn:    0.0006    constr:    0.0000
     atom:   16    charge:    0.8840    magn:    0.0029    constr:    0.0000
     atom:   17    charge:    0.9194    magn:    0.0159    constr:    0.0000
     atom:   18    charge:    0.9195    magn:    0.0171    constr:    0.0000
     atom:   19    charge:    0.8876    magn:    0.0023    constr:    0.0000
     atom:   20    charge:    0.8815    magn:    0.0004    constr:    0.0000
     atom:   21    charge:    0.8804    magn:    0.0005    constr:    0.0000
     atom:   22    charge:    0.8805    magn:    0.0001    constr:    0.0000
     atom:   23    charge:    0.8816    magn:    0.0003    constr:    0.0000
     atom:   24    charge:    0.8832    magn:    0.0091    constr:    0.0000
     atom:   25    charge:    1.7307    magn:    0.2278    constr:    0.0000
     atom:   26    charge:    0.9195    magn:    0.0172    constr:    0.0000
     atom:   27    charge:    0.8820    magn:    0.0007    constr:    0.0000
     atom:   28    charge:    0.8797    magn:    0.0001    constr:    0.0000
     atom:   29    charge:    0.8806    magn:    0.0005    constr:    0.0000
     atom:   30    charge:    0.8816    magn:    0.0009    constr:    0.0000
     atom:   31    charge:    0.8820    magn:    0.0041    constr:    0.0000
     atom:   32    charge:    0.8832    magn:    0.0091    constr:    0.0000
     atom:   33    charge:    0.9194    magn:    0.0160    constr:    0.0000
     atom:   34    charge:    0.8831    magn:    0.0075    constr:    0.0000
     atom:   35    charge:    0.8805    magn:    0.0012    constr:    0.0000
     atom:   36    charge:    0.8823    magn:    0.0003    constr:    0.0000
     atom:   37    charge:    0.8818    magn:    0.0004    constr:    0.0000
     atom:   38    charge:    0.8816    magn:    0.0009    constr:    0.0000
     atom:   39    charge:    0.8817    magn:    0.0003    constr:    0.0000
     atom:   40    charge:    0.8840    magn:    0.0029    constr:    0.0000
     atom:   41    charge:    0.8826    magn:    0.0004    constr:    0.0000
     atom:   42    charge:    0.8815    magn:    0.0015    constr:    0.0000
     atom:   43    charge:    0.8822    magn:    0.0006    constr:    0.0000
     atom:   44    charge:    0.8823    magn:    0.0004    constr:    0.0000
     atom:   45    charge:    0.8806    magn:    0.0005    constr:    0.0000
     atom:   46    charge:    0.8805    magn:    0.0001    constr:    0.0000
     atom:   47    charge:    0.8825    magn:    0.0006    constr:    0.0000
     atom:   48    charge:    0.8823    magn:    0.0006    constr:    0.0000
     atom:   49    charge:    0.8803    magn:   -0.0000    constr:    0.0000
     atom:   50    charge:    2.8682    magn:    0.0008    constr:    0.0000
     atom:   51    charge:    2.8714    magn:   -0.0006    constr:    0.0000
     atom:   52    charge:    2.8719    magn:    0.0082    constr:    0.0000
     atom:   53    charge:    2.8681    magn:    0.0021    constr:    0.0000
     atom:   54    charge:    2.8684    magn:    0.0004    constr:    0.0000
     atom:   55    charge:    2.8730    magn:    0.0006    constr:    0.0000
     atom:   56    charge:    2.8714    magn:    0.0003    constr:    0.0000
     atom:   57    charge:    2.8692    magn:    0.0019    constr:    0.0000
     atom:   58    charge:    2.8681    magn:    0.0107    constr:    0.0000
     atom:   59    charge:    2.8681    magn:    0.0274    constr:    0.0000
     atom:   60    charge:    2.8679    magn:    0.0136    constr:    0.0000
     atom:   61    charge:    2.8681    magn:    0.0145    constr:    0.0000
     atom:   62    charge:    2.8710    magn:    0.0064    constr:    0.0000
     atom:   63    charge:    2.8730    magn:    0.0006    constr:    0.0000
     atom:   64    charge:    2.8674    magn:    0.0003    constr:    0.0000
     atom:   65    charge:    2.8697    magn:    0.0039    constr:    0.0000
     atom:   66    charge:    2.8651    magn:    0.0236    constr:    0.0000
     atom:   67    charge:    1.8067    magn:    0.1721    constr:    0.0000
     atom:   68    charge:    2.8603    magn:    0.0885    constr:    0.0000
     atom:   69    charge:    2.8679    magn:    0.0146    constr:    0.0000
     atom:   70    charge:    2.8684    magn:    0.0004    constr:    0.0000
     atom:   71    charge:    2.8683    magn:    0.0004    constr:    0.0000
     atom:   72    charge:    2.8694    magn:    0.0001    constr:    0.0000
     atom:   73    charge:    2.8675    magn:    0.0106    constr:    0.0000
     atom:   74    charge:    2.8281    magn:    0.0852    constr:    0.0000
     atom:   75    charge:    1.8066    magn:    0.1718    constr:    0.0000
     atom:   76    charge:    2.8679    magn:    0.0136    constr:    0.0000
     atom:   77    charge:    2.8682    magn:    0.0021    constr:    0.0000
     atom:   78    charge:    2.8674    magn:    0.0004    constr:    0.0000
     atom:   79    charge:    2.8695    magn:    0.0001    constr:    0.0000
     atom:   80    charge:    2.8746    magn:    0.0039    constr:    0.0000
     atom:   81    charge:    2.8675    magn:    0.0107    constr:    0.0000
     atom:   82    charge:    2.8652    magn:    0.0236    constr:    0.0000
     atom:   83    charge:    2.8683    magn:    0.0274    constr:    0.0000
     atom:   84    charge:    2.8718    magn:    0.0082    constr:    0.0000
     atom:   85    charge:    2.8689    magn:    0.0007    constr:    0.0000
     atom:   86    charge:    2.8701    magn:    0.0002    constr:    0.0000
     atom:   87    charge:    2.8694    magn:    0.0000    constr:    0.0000
     atom:   88    charge:    2.8693    magn:    0.0001    constr:    0.0000
     atom:   89    charge:    2.8697    magn:    0.0039    constr:    0.0000
     atom:   90    charge:    2.8682    magn:    0.0107    constr:    0.0000
     atom:   91    charge:    2.8716    magn:   -0.0006    constr:    0.0000
     atom:   92    charge:    2.8682    magn:    0.0001    constr:    0.0000
     atom:   93    charge:    2.8689    magn:    0.0006    constr:    0.0000
     atom:   94    charge:    2.8674    magn:    0.0003    constr:    0.0000
     atom:   95    charge:    2.8683    magn:    0.0004    constr:    0.0000
     atom:   96    charge:    2.8674    magn:    0.0003    constr:    0.0000
     atom:   97    charge:    2.8692    magn:    0.0019    constr:    0.0000
     atom:   98    charge:    2.8682    magn:    0.0008    constr:    0.0000

     total cpu time spent up to now is      555.6 secs

     End of self-consistent calculation

 ------ SPIN UP ------------


          k = 0.0000 0.0000 0.0000 ( 77079 PWs)   bands (ev):

   -21.7812 -21.5627 -21.3729 -21.3709 -21.3551 -21.2916 -21.2739 -20.8330
   -20.6344 -20.6331 -20.6058 -20.5385 -20.5362 -20.3872 -20.2906 -20.2788
   -20.2681 -20.1305 -20.1125 -19.5648 -19.4016 -19.3841 -19.3665 -19.3613
   -19.3609 -19.3471 -19.3349 -19.3333 -19.2991 -19.1797 -19.1534 -19.0162
   -18.9659 -18.9617 -18.9446 -18.7695 -18.7534 -18.5336 -18.5227 -18.5074
   -18.4974 -18.4384 -18.3924 -18.3778 -18.3515 -18.3293 -18.3174 -17.1141
   -15.3257 -13.2295 -12.7580 -12.7578 -12.7313 -12.7027 -12.7014 -12.6277
   -12.5523 -12.5265 -12.5103 -12.4905 -12.4177 -12.1328 -12.0634 -12.0512
   -12.0226 -11.9854 -11.9691 -11.5446 -11.3916 -11.3886 -11.3732 -11.3642
   -11.3492 -11.3483 -11.3277 -11.3074 -11.2966 -11.1156 -11.0889 -10.8318
   -10.6994 -10.6891 -10.6708 -10.6608 -10.5511 -10.0305 -10.0022  -9.9892
    -9.9265  -9.8823  -9.8305  -9.3749  -9.3518  -9.2868  -9.2807  -9.2793
    -9.2575  -9.1899  -8.9999  -8.9580  -8.8992  -8.8891  -8.8698  -8.8527
    -8.8496  -8.8458  -8.8380  -8.8271  -8.8175  -8.8171  -8.8094  -8.8093
    -8.7963  -8.7916  -8.7834  -8.7722  -8.7587  -8.7435  -8.6838  -8.6721
    -8.5518  -8.5214  -8.1774  -8.1451  -8.1418  -8.1088  -8.0576  -7.9622
    -7.8816  -7.8209  -7.8093  -7.7869  -7.7855  -7.7396  -7.5270  -7.4918
    -7.4708  -7.4509  -7.4353  -7.4325  -7.4251  -7.3838  -7.3711  -7.3477
    -7.3315  -7.3282  -7.3232  -7.3013  -7.2399  -7.2278  -7.2245  -7.0783
    -6.9875  -6.9581  -6.9204  -6.8317  -6.6963  -6.6387  -6.2627  -6.1680
    -6.1661  -6.1345  -6.0714  -6.0565  -6.0514  -6.0478  -6.0428  -6.0351
    -6.0292  -6.0236  -6.0185  -5.9887  -5.9869  -5.8505  -5.8301  -5.7860
    -5.5160  -5.4461  -5.4418  -5.4408  -5.3900  -5.3133  -5.2074  -5.1987
    -4.7920  -4.7754  -4.7531  -4.7414  -4.7308  -4.6543  -4.5450  -4.5141
    -4.5069  -4.4932  -4.4843  -3.8975  -0.3613   0.1844   0.7063   0.7153
     0.7164   0.7427   0.7484   0.7577   0.7940   0.8134   0.8139   0.8218
     0.8270   0.8387   0.8590   0.8799   0.8888   0.8926   0.9169   0.9460
     0.9498   1.1470   1.2389   1.2405   1.2452   1.2755   1.3236   1.3259
     1.3316   1.3365   1.3438   1.3591   1.3799   1.4383   1.4413   1.4441
     1.4490   1.4573   1.4726   1.8836   2.0582   2.1082   2.1137   2.1228
     2.1245   2.1362   2.1420   2.2086   2.3578

 ------ SPIN DOWN ----------


          k = 0.0000 0.0000 0.0000 ( 77079 PWs)   bands (ev):

   -21.7367 -21.4742 -21.3664 -21.3652 -21.3449 -21.2705 -21.2026 -20.7621
   -20.6224 -20.6139 -20.5916 -20.5254 -20.5072 -20.3640 -20.2718 -20.2634
   -20.2394 -20.0863 -20.0688 -19.5093 -19.3907 -19.3762 -19.3580 -19.3528
   -19.3487 -19.3381 -19.3116 -19.2898 -19.2784 -19.1491 -19.1369 -18.9998
   -18.9514 -18.9507 -18.9139 -18.7465 -18.7224 -18.5177 -18.4998 -18.4888
   -18.4804 -18.4278 -18.3725 -18.3673 -18.3424 -18.3013 -18.3010 -16.5943
   -14.8316 -13.0414 -12.7493 -12.7421 -12.7228 -12.6945 -12.6932 -12.6097
   -12.5423 -12.5159 -12.4955 -12.4560 -12.3901 -12.1096 -12.0498 -12.0377
   -12.0078 -11.9646 -11.9394 -11.4925 -11.3759 -11.3606 -11.3601 -11.3529
   -11.3429 -11.3356 -11.3157 -11.2799 -11.2714 -11.0555 -11.0288 -10.8040
   -10.6925 -10.6838 -10.6553 -10.6307 -10.5145 -10.0106  -9.9777  -9.9708
    -9.8980  -9.8467  -9.7944  -9.3560  -9.2805  -9.2711  -9.2679  -9.2543
    -9.2463  -9.1778  -8.9722  -8.8779  -8.8638  -8.8586  -8.8449  -8.8391
    -8.8347  -8.8294  -8.8280  -8.8205  -8.8066  -8.7987  -8.7962  -8.7924
    -8.7760  -8.7697  -8.7623  -8.7213  -8.6984  -8.6475  -8.6251  -8.5546
    -8.4939  -8.4938  -8.1727  -8.1374  -8.1325  -8.0640  -8.0281  -7.8404
    -7.8087  -7.7852  -7.7672  -7.7532  -7.6837  -7.6443  -7.5068  -7.4789
    -7.4534  -7.4453  -7.4313  -7.4217  -7.3713  -7.3619  -7.3352  -7.3131
    -7.2979  -7.2957  -7.2669  -7.2066  -7.1893  -7.1413  -7.0901  -7.0325
    -6.9823  -6.9508  -6.8648  -6.7749  -6.6573  -6.5886  -6.1577  -6.1533
    -6.1280  -6.0693  -6.0448  -6.0354  -6.0186  -6.0109  -6.0086  -6.0056
    -5.9958  -5.9686  -5.9375  -5.9327  -5.7888  -5.7755  -5.7527  -5.7349
    -5.4485  -5.4150  -5.4019  -5.3803  -5.1868  -5.1858  -5.1040  -5.0924
    -4.7362  -4.7190  -4.7040  -4.6978  -4.6178  -4.5848  -4.5082  -4.4836
    -4.4589  -4.4486  -3.9320  -2.9137   0.1918   0.5598   0.7113   0.7465
     0.7550   0.7797   0.7915   0.7916   0.7939   0.8151   0.8216   0.8283
     0.8412   0.8571   0.8677   0.9106   0.9184   0.9361   0.9561   0.9829
     1.0846   1.2237   1.2702   1.2788   1.3028   1.3251   1.3298   1.3353
     1.3434   1.3564   1.3805   1.4074   1.4359   1.4363   1.4383   1.4416
     1.4465   1.4559   1.4822   1.8877   2.1143   2.1151   2.1264   2.1298
     2.1524   2.1636   2.2150   2.2453   2.3587

     highest occupied, lowest unoccupied level (ev):    -0.3613   -3.9320

!    total energy              =   -1940.16356765 Ry
     Harris-Foulkes estimate   =   -1940.16356797 Ry
     estimated scf accuracy    <       0.00000070 Ry

     total all-electron energy =     -7769.988044 Ry

     The total energy is the sum of the following terms:

     one-electron contribution =  -10680.61729090 Ry
     hartree contribution      =    5426.36195940 Ry
     xc contribution           =    -431.07381490 Ry
     ewald contribution        =    4388.62168141 Ry
     DFT-D3 Dispersion         =      -0.27079554 Ry
     one-center paw contrib.   =    -643.18530711 Ry

     total magnetization       =     3.00 Bohr mag/cell
     absolute magnetization    =     3.17 Bohr mag/cell

     convergence has been achieved in  14 iterations

     negative rho (up, down):  4.863E-01 1.253E-02

     Forces acting on atoms (cartesian axes, Ry/au):

     atom    1 type  1   force =    -0.00054716   -0.00173486    0.00000000
     atom    2 type  1   force =     0.00195658   -0.00221214    0.00000000
     atom    3 type  1   force =    -0.00120841    0.00253657    0.00000000
     atom    4 type  1   force =    -0.00134682   -0.00137058    0.00000000
     atom    5 type  1   force =     0.00173778   -0.00236541    0.00000000
     atom    6 type  1   force =    -0.00022383    0.00161518    0.00000000
     atom    7 type  1   force =    -0.00255699    0.00148633    0.00000000
     atom    8 type  1   force =    -0.00399372   -0.00192913    0.00000000
     atom    9 type  1   force =    -0.00423086    0.00075936    0.00000000
     atom   10 type  1   force =    -0.00071330    0.00260570    0.00000000
     atom   11 type  1   force =     0.00089006   -0.00874138    0.00000000
     atom   12 type  1   force =    -0.00322214   -0.00234100    0.00000000
     atom   13 type  1   force =    -0.00155856    0.00089831    0.00000000
     atom   14 type  1   force =    -0.00150698   -0.00060025    0.00000000
     atom   15 type  1   force =     0.00171529   -0.00143133    0.00000000
     atom   16 type  1   force =     0.00200922    0.00986825    0.00000000
     atom   17 type  1   force =    -0.00343141   -0.08087593    0.00000000
     atom   18 type  1   force =    -0.06768191    0.03090212    0.00000000
     atom   19 type  1   force =     0.00018131   -0.00012020    0.00000000
     atom   20 type  1   force =     0.00039989    0.00397652    0.00000000
     atom   21 type  1   force =     0.00293039   -0.00031753    0.00000000
     atom   22 type  1   force =     0.00256538   -0.00403814    0.00000000
     atom   23 type  1   force =    -0.00110824   -0.00543028    0.00000000
     atom   24 type  1   force =    -0.01019478   -0.01729656    0.00000000
     atom   25 type  4   force =     0.05892575   -0.03398699    0.00000000
     atom   26 type  1   force =    -0.06057834    0.04318689    0.00000000
     atom   27 type  1   force =     0.00805828    0.00362468    0.00000000
     atom   28 type  1   force =     0.00053126    0.00184444    0.00000000
     atom   29 type  1   force =    -0.00220567   -0.00352260    0.00000000
     atom   30 type  1   force =     0.00110415   -0.00438555    0.00000000
     atom   31 type  1   force =     0.00591883   -0.00343213    0.00000000
     atom   32 type  1   force =     0.00987647    0.01748193    0.00000000
     atom   33 type  1   force =     0.06833287    0.04343666    0.00000000
     atom   34 type  1   force =    -0.00260682   -0.00072176    0.00000000
     atom   35 type  1   force =    -0.00283608   -0.00022008    0.00000000
     atom   36 type  1   force =    -0.00083619   -0.00207556    0.00000000
     atom   37 type  1   force =    -0.00080410    0.00045512    0.00000000
     atom   38 type  1   force =     0.00434391    0.00122894    0.00000000
     atom   39 type  1   force =     0.00414809    0.00367529    0.00000000
     atom   40 type  1   force =    -0.00756324   -0.00669191    0.00000000
     atom   41 type  1   force =    -0.00282411    0.00327044    0.00000000
     atom   42 type  1   force =     0.00289029   -0.00058192    0.00000000
     atom   43 type  1   force =     0.00388794   -0.00224982    0.00000000
     atom   44 type  1   force =     0.00137364    0.00175269    0.00000000
     atom   45 type  1   force =     0.00195130    0.00366961    0.00000000
     atom   46 type  1   force =     0.00478460   -0.00020481    0.00000000
     atom   47 type  1   force =     0.00209401   -0.00076996    0.00000000
     atom   48 type  1   force =    -0.00032094    0.00443398    0.00000000
     atom   49 type  1   force =     0.00122382    0.00134840    0.00000000
     atom   50 type  2   force =     0.00032831   -0.00030644    0.00000000
     atom   51 type  2   force =    -0.00067870   -0.00236493    0.00000000
     atom   52 type  2   force =    -0.00006981    0.00070606    0.00000000
     atom   53 type  2   force =    -0.00214822    0.00111050    0.00000000
     atom   54 type  2   force =    -0.00048506    0.00013146    0.00000000
     atom   55 type  2   force =     0.00065958    0.00011940    0.00000000
     atom   56 type  2   force =     0.00024747   -0.00015572    0.00000000
     atom   57 type  2   force =     0.00019735   -0.00100309    0.00000000
     atom   58 type  2   force =    -0.00109282   -0.00210538    0.00000000
     atom   59 type  2   force =    -0.00198112   -0.01573690    0.00000000
     atom   60 type  2   force =    -0.01534592    0.00549878    0.00000000
     atom   61 type  2   force =    -0.00305401    0.00280286    0.00000000
     atom   62 type  2   force =     0.00057592   -0.00035154    0.00000000
     atom   63 type  2   force =     0.00022067   -0.00063946    0.00000000
     atom   64 type  2   force =     0.00076160    0.00034451    0.00000000
     atom   65 type  2   force =     0.00398873   -0.00207635    0.00000000
     atom   66 type  2   force =     0.01179890   -0.02430984    0.00000000
     atom   67 type  3   force =     0.08057714    0.02508159    0.00000000
     atom   68 type  2   force =    -0.04153093    0.02392158    0.00000000
     atom   69 type  2   force =    -0.00397943    0.00120840    0.00000000
     atom   70 type  2   force =    -0.00037081    0.00036757    0.00000000
     atom   71 type  2   force =    -0.00038741    0.00047552    0.00000000
     atom   72 type  2   force =    -0.00039431    0.00238840    0.00000000
     atom   73 type  2   force =    -0.00384617    0.01049258    0.00000000
     atom   74 type  2   force =    -0.06053235    0.03495545    0.00000000
     atom   75 type  5   force =     0.01858931   -0.08235181    0.00000000
     atom   76 type  2   force =    -0.01239733    0.01055536    0.00000000
     atom   77 type  2   force =    -0.00201048    0.00134819    0.00000000
     atom   78 type  2   force =    -0.00117432    0.00067043    0.00000000
     atom   79 type  2   force =    -0.00146172    0.00093127    0.00000000
     atom   80 type  2   force =    -0.00448171    0.00258203    0.00000000
     atom   81 type  2   force =    -0.01101460   -0.00188920    0.00000000
     atom   82 type  2   force =     0.02698199    0.00196697    0.00000000
     atom   83 type  2   force =     0.01268889    0.00960220    0.00000000
     atom   84 type  2   force =    -0.00061265   -0.00027464    0.00000000
     atom   85 type  2   force =    -0.00022446   -0.00009600    0.00000000
     atom   86 type  2   force =    -0.00072291    0.00041545    0.00000000
     atom   87 type  2   force =    -0.00154146    0.00079477    0.00000000
     atom   88 type  2   force =    -0.00227324   -0.00083149    0.00000000
     atom   89 type  2   force =     0.00377722   -0.00240541    0.00000000
     atom   90 type  2   force =     0.00125413    0.00199293    0.00000000
     atom   91 type  2   force =     0.00170435    0.00174763    0.00000000
     atom   92 type  2   force =     0.00012469   -0.00009764    0.00000000
     atom   93 type  2   force =    -0.00005341    0.00023538    0.00000000
     atom   94 type  2   force =    -0.00117766    0.00067683    0.00000000
     atom   95 type  2   force =    -0.00060696    0.00011927    0.00000000
     atom   96 type  2   force =     0.00008095   -0.00083154    0.00000000
     atom   97 type  2   force =     0.00095346    0.00032609    0.00000000
     atom   98 type  2   force =     0.00040879   -0.00015171    0.00000000

     Total force =     0.234079     Total SCF correction =     0.001633


     Computing stress (Cartesian axis) and pressure


     negative rho (up, down):  4.863E-01 1.253E-02
          total   stress  (Ry/bohr**3)                   (kbar)     P=    2.01
   0.00002107   0.00000197   0.00000000          3.10      0.29      0.00
   0.00000197   0.00002334   0.00000000          0.29      3.43      0.00
   0.00000000   0.00000000  -0.00000348          0.00      0.00     -0.51


     BFGS Geometry Optimization

     number of scf cycles    =   1
     number of bfgs steps    =   0

     enthalpy new            =   -1940.1635676508 Ry

     new trust radius        =       0.0844238259 bohr
     new conv_thr            =       0.0000010000 Ry

     new unit-cell volume =  36144.68323 a.u.^3 (  5356.08939 Ang^3 )
     density =      0.36397 g/cm^3

CELL_PARAMETERS (alat= 33.23461096)
   0.999860862   0.000049168   0.000000000
  -0.499887850   0.865929420   0.000000000
   0.000000000   0.000000000   1.137203616

ATOMIC_POSITIONS (crystal)
B        0.047576591   0.095186130   0.500000000
B        0.047639331   0.238021635   0.500000000
B        0.047628685   0.381033811   0.500000000
B        0.047559869   0.523764973   0.500000000
B        0.047632179   0.666593116   0.500000000
B        0.047640213   0.809576486   0.500000000
B        0.047572072   0.952428452   0.500000000
B        0.190332991   0.095176318   0.500000000
B        0.190365482   0.238124945   0.500000000
B        0.190499627   0.381042207   0.500000000
B        0.190359351   0.523509089   0.500000000
B        0.190346797   0.666591118   0.500000000
B        0.190444496   0.809555425   0.500000000
B        0.190423861   0.952360256   0.500000000
B        0.333358250   0.095191930   0.500000000
B        0.333563527   0.238432882   0.500000000
B        0.331815420   0.378133804   0.500000000
B        0.331826835   0.524887377   0.500000000
B        0.333336370   0.666662821   0.500000000
B        0.333408658   0.809653744   0.500000000
B        0.333407358   0.952367985   0.500000000
B        0.476194575   0.095104880   0.500000000
B        0.476059428   0.237904802   0.500000000
B        0.475579900   0.380340907   0.500000000
C2       0.477370767   0.522630996   0.500000000
B        0.475113777   0.668173989   0.500000000
B        0.476492637   0.809641511   0.500000000
B        0.476235435   0.952439880   0.500000000
B        0.618930097   0.095122803   0.500000000
B        0.619007619   0.237947747   0.500000000
B        0.619169158   0.380830065   0.500000000
B        0.619659013   0.524420264   0.500000000
B        0.621866905   0.668185519   0.500000000
B        0.618957350   0.809499099   0.500000000
B        0.618965160   0.952371374   0.500000000
B        0.761848950   0.095169532   0.500000000
B        0.761890104   0.238109420   0.500000000
B        0.762051935   0.380992117   0.500000000
B        0.762095188   0.523940585   0.500000000
B        0.761566156   0.666435856   0.500000000
B        0.761873276   0.809634034   0.500000000
B        0.761978364   0.952360894   0.500000000
B        0.904834565   0.095165168   0.500000000
B        0.904830134   0.238150728   0.500000000
B        0.904877269   0.381069838   0.500000000
B        0.904895226   0.523805348   0.500000000
B        0.904807971   0.666641745   0.500000000
B        0.904824027   0.809667383   0.500000000
B        0.904813842   0.952423657   0.500000000
N        0.095248407   0.047611270   0.500000000
N        0.095180146   0.190401162   0.500000000
N        0.095250520   0.333356535   0.500000000
N        0.095197534   0.476227095   0.500000000
N        0.095230592   0.619058996   0.500000000
N        0.095262283   0.761912512   0.500000000
N        0.095246436   0.904752894   0.500000000
N        0.238086276   0.047584407   0.500000000
N        0.238028268   0.190405292   0.500000000
N        0.237758426   0.332784861   0.500000000
N        0.237727768   0.476379640   0.500000000
N        0.238055451   0.619147287   0.500000000
N        0.238105461   0.761893546   0.500000000
N        0.238087167   0.904737420   0.500000000
N        0.380976739   0.047632570   0.500000000
N        0.381035758   0.190403689   0.500000000
N        0.380880483   0.332482045   0.500000000
C1       0.383807690   0.477060499   0.500000000
N        0.380115540   0.619881523   0.500000000
N        0.380851349   0.761943332   0.500000000
N        0.380940799   0.904769868   0.500000000
N        0.523808376   0.047639081   0.500000000
N        0.523841450   0.190564772   0.500000000
N        0.523878396   0.333693865   0.500000000
N        0.522596845   0.477403524   0.500000000
C3       0.522939658   0.616191296   0.500000000
N        0.523621753   0.762272747   0.500000000
N        0.523774417   0.904803962   0.500000000
N        0.666649070   0.047643901   0.500000000
N        0.666643108   0.190514111   0.500000000
N        0.666576944   0.333422770   0.500000000
N        0.666306450   0.476122515   0.500000000
N        0.667519371   0.619120567   0.500000000
N        0.667216985   0.762242201   0.500000000
N        0.666644792   0.904750104   0.500000000
N        0.809513083   0.047615943   0.500000000
N        0.809509579   0.190490321   0.500000000
N        0.809485670   0.333356701   0.500000000
N        0.809435366   0.476159288   0.500000000
N        0.809596037   0.618964616   0.500000000
N        0.809593915   0.761971517   0.500000000
N        0.809598313   0.904819068   0.500000000
N        0.952380133   0.047618529   0.500000000
N        0.952383203   0.190486674   0.500000000
N        0.952355715   0.333350758   0.500000000
N        0.952361249   0.476192373   0.500000000
N        0.952367390   0.619023271   0.500000000
N        0.952415096   0.761913566   0.500000000
N        0.952387747   0.904750876   0.500000000



     Writing output data file C2Cn.save/
     NEW-OLD atomic charge density approx. for the potential
     NEW k-points:
   0.0000000   0.0000000   0.0000000   1.0000000
   0.0000000   0.0000000   0.0000000   1.0000000

     Check: negative core charge=   -0.000006

     negative rho (up, down):  4.861E-01 4.863E-03
     extrapolated charge  391.43371, renormalised to  391.00000

     total cpu time spent up to now is      578.6 secs

     Self-consistent Calculation

     iteration #  1     ecut=    40.00 Ry     beta= 0.70
     CG style diagonalization
     c_bands:  3 eigenvalues not converged
     c_bands:  1 eigenvalues not converged
     ethr =  1.00E-06,  avg # of iterations = 20.9

     negative rho (up, down):  4.792E-01 1.424E-02

     total cpu time spent up to now is      822.2 secs

     total energy              =   -1940.17189227 Ry
     Harris-Foulkes estimate   =   -1928.72069084 Ry
     estimated scf accuracy    <       0.02527306 Ry

     total magnetization       =     3.00 Bohr mag/cell
     absolute magnetization    =     3.16 Bohr mag/cell

     iteration #  2     ecut=    40.00 Ry     beta= 0.70
     CG style diagonalization
     c_bands:  3 eigenvalues not converged
     c_bands:  2 eigenvalues not converged
     ethr =  6.46E-06,  avg # of iterations =  4.6

     negative rho (up, down):  4.811E-01 1.349E-02

     total cpu time spent up to now is      869.8 secs

     total energy              =   -1940.17660904 Ry
     Harris-Foulkes estimate   =   -1940.19193309 Ry
     estimated scf accuracy    <       0.03254875 Ry

     total magnetization       =     3.00 Bohr mag/cell
     absolute magnetization    =     3.16 Bohr mag/cell

     iteration #  3     ecut=    40.00 Ry     beta= 0.70
     CG style diagonalization
     ethr =  6.46E-06,  avg # of iterations =  3.6

     negative rho (up, down):  4.821E-01 1.333E-02

     total cpu time spent up to now is      905.0 secs

     total energy              =   -1940.18276164 Ry
     Harris-Foulkes estimate   =   -1940.18520937 Ry
     estimated scf accuracy    <       0.00621481 Ry

     total magnetization       =     3.00 Bohr mag/cell
     absolute magnetization    =     3.16 Bohr mag/cell

     iteration #  4     ecut=    40.00 Ry     beta= 0.70
     CG style diagonalization
     ethr =  1.59E-06,  avg # of iterations =  3.4

     negative rho (up, down):  4.835E-01 1.312E-02

     total cpu time spent up to now is      937.4 secs

     total energy              =   -1940.18408470 Ry
     Harris-Foulkes estimate   =   -1940.18410039 Ry
     estimated scf accuracy    <       0.00023068 Ry

     total magnetization       =     3.00 Bohr mag/cell
     absolute magnetization    =     3.16 Bohr mag/cell

     iteration #  5     ecut=    40.00 Ry     beta= 0.70
     CG style diagonalization
     ethr =  5.90E-08,  avg # of iterations =  3.9

     negative rho (up, down):  4.834E-01 1.318E-02

     total cpu time spent up to now is      975.9 secs

     total energy              =   -1940.18416284 Ry
     Harris-Foulkes estimate   =   -1940.18424028 Ry
     estimated scf accuracy    <       0.00019099 Ry

     total magnetization       =     3.00 Bohr mag/cell
     absolute magnetization    =     3.16 Bohr mag/cell

     iteration #  6     ecut=    40.00 Ry     beta= 0.70
     CG style diagonalization
     ethr =  4.88E-08,  avg # of iterations =  3.3

     negative rho (up, down):  4.834E-01 1.319E-02

     total cpu time spent up to now is     1006.9 secs

     total energy              =   -1940.18419164 Ry
     Harris-Foulkes estimate   =   -1940.18420044 Ry
     estimated scf accuracy    <       0.00002564 Ry

     total magnetization       =     3.00 Bohr mag/cell
     absolute magnetization    =     3.16 Bohr mag/cell

     iteration #  7     ecut=    40.00 Ry     beta= 0.70
     CG style diagonalization
     ethr =  6.56E-09,  avg # of iterations =  3.9

     negative rho (up, down):  4.835E-01 1.320E-02

     total cpu time spent up to now is     1044.8 secs

     total energy              =   -1940.18420075 Ry
     Harris-Foulkes estimate   =   -1940.18420505 Ry
     estimated scf accuracy    <       0.00001684 Ry

     total magnetization       =     3.00 Bohr mag/cell
     absolute magnetization    =     3.16 Bohr mag/cell

     iteration #  8     ecut=    40.00 Ry     beta= 0.70
     CG style diagonalization
     ethr =  4.31E-09,  avg # of iterations =  3.2

     negative rho (up, down):  4.835E-01 1.321E-02

     total cpu time spent up to now is     1074.5 secs

     total energy              =   -1940.18420342 Ry
     Harris-Foulkes estimate   =   -1940.18420372 Ry
     estimated scf accuracy    <       0.00000207 Ry

     total magnetization       =     3.00 Bohr mag/cell
     absolute magnetization    =     3.16 Bohr mag/cell

     iteration #  9     ecut=    40.00 Ry     beta= 0.70
     CG style diagonalization
     ethr =  5.29E-10,  avg # of iterations =  3.6

     negative rho (up, down):  4.835E-01 1.322E-02
 
     Magnetic moment per site:
     atom:    1    charge:    0.8808    magn:   -0.0000    constr:    0.0000
     atom:    2    charge:    0.8812    magn:    0.0015    constr:    0.0000
     atom:    3    charge:    0.8802    magn:    0.0013    constr:    0.0000
     atom:    4    charge:    0.8800    magn:    0.0001    constr:    0.0000
     atom:    5    charge:    0.8805    magn:    0.0007    constr:    0.0000
     atom:    6    charge:    0.8815    magn:    0.0000    constr:    0.0000
     atom:    7    charge:    0.8805    magn:    0.0009    constr:    0.0000
     atom:    8    charge:    0.8824    magn:    0.0008    constr:    0.0000
     atom:    9    charge:    0.8861    magn:    0.0004    constr:    0.0000
     atom:   10    charge:    0.8794    magn:    0.0082    constr:    0.0000
     atom:   11    charge:    0.8850    magn:    0.0007    constr:    0.0000
     atom:   12    charge:    0.8824    magn:    0.0005    constr:    0.0000
     atom:   13    charge:    0.8822    magn:    0.0000    constr:    0.0000
     atom:   14    charge:    0.8815    magn:    0.0000    constr:    0.0000
     atom:   15    charge:    0.8826    magn:    0.0008    constr:    0.0000
     atom:   16    charge:    0.8892    magn:    0.0046    constr:    0.0000
     atom:   17    charge:    0.9078    magn:    0.0154    constr:    0.0000
     atom:   18    charge:    0.8983    magn:    0.0169    constr:    0.0000
     atom:   19    charge:    0.9001    magn:    0.0040    constr:    0.0000
     atom:   20    charge:    0.8824    magn:    0.0005    constr:    0.0000
     atom:   21    charge:    0.8805    magn:    0.0007    constr:    0.0000
     atom:   22    charge:    0.8802    magn:    0.0001    constr:    0.0000
     atom:   23    charge:    0.8802    magn:    0.0004    constr:    0.0000
     atom:   24    charge:    0.8770    magn:    0.0120    constr:    0.0000
     atom:   25    charge:    1.7883    magn:    0.1978    constr:    0.0000
     atom:   26    charge:    0.8983    magn:    0.0169    constr:    0.0000
     atom:   27    charge:    0.8850    magn:    0.0008    constr:    0.0000
     atom:   28    charge:    0.8800    magn:    0.0001    constr:    0.0000
     atom:   29    charge:    0.8807    magn:    0.0007    constr:    0.0000
     atom:   30    charge:    0.8815    magn:    0.0012    constr:    0.0000
     atom:   31    charge:    0.8840    magn:    0.0057    constr:    0.0000
     atom:   32    charge:    0.8770    magn:    0.0120    constr:    0.0000
     atom:   33    charge:    0.9078    magn:    0.0154    constr:    0.0000
     atom:   34    charge:    0.8794    magn:    0.0082    constr:    0.0000
     atom:   35    charge:    0.8802    magn:    0.0013    constr:    0.0000
     atom:   36    charge:    0.8819    magn:    0.0003    constr:    0.0000
     atom:   37    charge:    0.8814    magn:    0.0004    constr:    0.0000
     atom:   38    charge:    0.8815    magn:    0.0012    constr:    0.0000
     atom:   39    charge:    0.8802    magn:    0.0004    constr:    0.0000
     atom:   40    charge:    0.8892    magn:    0.0046    constr:    0.0000
     atom:   41    charge:    0.8861    magn:    0.0004    constr:    0.0000
     atom:   42    charge:    0.8812    magn:    0.0015    constr:    0.0000
     atom:   43    charge:    0.8820    magn:    0.0008    constr:    0.0000
     atom:   44    charge:    0.8819    magn:    0.0003    constr:    0.0000
     atom:   45    charge:    0.8807    magn:    0.0007    constr:    0.0000
     atom:   46    charge:    0.8802    magn:    0.0001    constr:    0.0000
     atom:   47    charge:    0.8826    magn:    0.0008    constr:    0.0000
     atom:   48    charge:    0.8824    magn:    0.0008    constr:    0.0000
     atom:   49    charge:    0.8808    magn:   -0.0000    constr:    0.0000
     atom:   50    charge:    2.8705    magn:    0.0005    constr:    0.0000
     atom:   51    charge:    2.8734    magn:   -0.0006    constr:    0.0000
     atom:   52    charge:    2.8717    magn:    0.0060    constr:    0.0000
     atom:   53    charge:    2.8706    magn:    0.0011    constr:    0.0000
     atom:   54    charge:    2.8705    magn:    0.0003    constr:    0.0000
     atom:   55    charge:    2.8734    magn:    0.0006    constr:    0.0000
     atom:   56    charge:    2.8725    magn:    0.0002    constr:    0.0000
     atom:   57    charge:    2.8693    magn:    0.0021    constr:    0.0000
     atom:   58    charge:    2.8668    magn:    0.0087    constr:    0.0000
     atom:   59    charge:    2.8780    magn:    0.0215    constr:    0.0000
     atom:   60    charge:    2.8795    magn:    0.0095    constr:    0.0000
     atom:   61    charge:    2.8673    magn:    0.0130    constr:    0.0000
     atom:   62    charge:    2.8708    magn:    0.0062    constr:    0.0000
     atom:   63    charge:    2.8734    magn:    0.0006    constr:    0.0000
     atom:   64    charge:    2.8687    magn:    0.0002    constr:    0.0000
     atom:   65    charge:    2.8706    magn:    0.0042    constr:    0.0000
     atom:   66    charge:    2.8799    magn:    0.0216    constr:    0.0000
     atom:   67    charge:    1.7637    magn:    0.1819    constr:    0.0000
     atom:   68    charge:    2.8731    magn:    0.0728    constr:    0.0000
     atom:   69    charge:    2.8673    magn:    0.0130    constr:    0.0000
     atom:   70    charge:    2.8705    magn:    0.0003    constr:    0.0000
     atom:   71    charge:    2.8714    magn:    0.0001    constr:    0.0000
     atom:   72    charge:    2.8700    magn:   -0.0001    constr:    0.0000
     atom:   73    charge:    2.8658    magn:    0.0101    constr:    0.0000
     atom:   74    charge:    2.8310    magn:    0.0992    constr:    0.0000
     atom:   75    charge:    1.7637    magn:    0.1819    constr:    0.0000
     atom:   76    charge:    2.8795    magn:    0.0095    constr:    0.0000
     atom:   77    charge:    2.8706    magn:    0.0011    constr:    0.0000
     atom:   78    charge:    2.8686    magn:    0.0001    constr:    0.0000
     atom:   79    charge:    2.8703    magn:    0.0001    constr:    0.0000
     atom:   80    charge:    2.8749    magn:    0.0044    constr:    0.0000
     atom:   81    charge:    2.8658    magn:    0.0101    constr:    0.0000
     atom:   82    charge:    2.8799    magn:    0.0216    constr:    0.0000
     atom:   83    charge:    2.8780    magn:    0.0215    constr:    0.0000
     atom:   84    charge:    2.8717    magn:    0.0060    constr:    0.0000
     atom:   85    charge:    2.8692    magn:    0.0003    constr:    0.0000
     atom:   86    charge:    2.8699    magn:    0.0000    constr:    0.0000
     atom:   87    charge:    2.8703    magn:    0.0001    constr:    0.0000
     atom:   88    charge:    2.8700    magn:   -0.0001    constr:    0.0000
     atom:   89    charge:    2.8706    magn:    0.0042    constr:    0.0000
     atom:   90    charge:    2.8668    magn:    0.0087    constr:    0.0000
     atom:   91    charge:    2.8734    magn:   -0.0006    constr:    0.0000
     atom:   92    charge:    2.8708    magn:   -0.0001    constr:    0.0000
     atom:   93    charge:    2.8692    magn:    0.0003    constr:    0.0000
     atom:   94    charge:    2.8686    magn:    0.0001    constr:    0.0000
     atom:   95    charge:    2.8714    magn:    0.0001    constr:    0.0000
     atom:   96    charge:    2.8686    magn:    0.0002    constr:    0.0000
     atom:   97    charge:    2.8693    magn:    0.0021    constr:    0.0000
     atom:   98    charge:    2.8705    magn:    0.0005    constr:    0.0000

     total cpu time spent up to now is     1108.9 secs

     End of self-consistent calculation

 ------ SPIN UP ------------


          k = 0.0000 0.0000 0.0000 ( 77079 PWs)   bands (ev):

   -21.9627 -21.6520 -21.3665 -21.3655 -21.3399 -21.3181 -21.3050 -20.9262
   -20.6407 -20.6391 -20.6247 -20.5462 -20.5435 -20.4076 -20.2902 -20.2870
   -20.2856 -20.1516 -20.1502 -19.6249 -19.4122 -19.3928 -19.3856 -19.3655
   -19.3591 -19.3579 -19.3490 -19.3403 -19.3345 -19.1612 -19.1490 -19.0386
   -18.9674 -18.9642 -18.9530 -18.7806 -18.7726 -18.5401 -18.5349 -18.5325
   -18.5006 -18.4322 -18.4273 -18.3762 -18.3552 -18.3270 -18.3258 -17.1000
   -15.1646 -13.2806 -12.7777 -12.7608 -12.7394 -12.7039 -12.6934 -12.6324
   -12.5519 -12.5419 -12.5114 -12.4864 -12.4251 -12.1429 -12.0678 -12.0625
   -12.0234 -11.9885 -11.9578 -11.5729 -11.4269 -11.4188 -11.3809 -11.3767
   -11.3519 -11.3434 -11.3432 -11.3278 -11.3027 -11.1156 -11.0530 -10.8692
   -10.7030 -10.6927 -10.6737 -10.6727 -10.5270 -10.0881 -10.0429 -10.0034
    -9.9203  -9.8832  -9.8161  -9.4262  -9.3922  -9.3231  -9.2929  -9.2765
    -9.2644  -9.1944  -9.0569  -9.0417  -8.9288  -8.9173  -8.8805  -8.8751
    -8.8729  -8.8648  -8.8470  -8.8290  -8.8271  -8.8173  -8.8131  -8.8129
    -8.8091  -8.8046  -8.7824  -8.7811  -8.7751  -8.7603  -8.6692  -8.6558
    -8.4904  -8.4789  -8.1784  -8.1710  -8.1530  -8.1248  -8.0987  -8.0527
    -7.8943  -7.8274  -7.8176  -7.8024  -7.7667  -7.7415  -7.5865  -7.5143
    -7.5079  -7.4657  -7.4485  -7.4277  -7.4136  -7.3867  -7.3838  -7.3572
    -7.3465  -7.3430  -7.3395  -7.2816  -7.2803  -7.2417  -7.2230  -7.0146
    -7.0061  -6.9735  -6.9434  -6.8383  -6.6441  -6.5482  -6.3484  -6.1995
    -6.1611  -6.1403  -6.0930  -6.0886  -6.0758  -6.0605  -6.0464  -6.0343
    -6.0330  -6.0215  -6.0203  -6.0106  -5.9461  -5.8170  -5.7781  -5.6773
    -5.5494  -5.4469  -5.4451  -5.4357  -5.3999  -5.2840  -5.0989  -5.0643
    -4.8025  -4.7850  -4.7753  -4.7443  -4.7235  -4.6470  -4.5639  -4.5133
    -4.5101  -4.4854  -4.4843  -3.7766  -0.1951   0.1812   0.6749   0.6843
     0.7093   0.7354   0.7431   0.7489   0.7923   0.8102   0.8131   0.8236
     0.8282   0.8405   0.8473   0.8613   0.8771   0.8947   0.9100   0.9360
     0.9432   1.1428   1.2149   1.2157   1.2544   1.2604   1.2895   1.3238
     1.3332   1.3369   1.3451   1.3503   1.3732   1.4376   1.4425   1.4454
     1.4504   1.4542   1.4689   1.8815   2.0706   2.1026   2.1094   2.1173
     2.1177   2.1280   2.1349   2.2079   2.2421

 ------ SPIN DOWN ----------


          k = 0.0000 0.0000 0.0000 ( 77079 PWs)   bands (ev):

   -21.7986 -21.5902 -21.3597 -21.3575 -21.3334 -21.2975 -21.2601 -20.8674
   -20.6267 -20.6183 -20.6118 -20.5337 -20.5203 -20.3940 -20.2765 -20.2713
   -20.2584 -20.1302 -20.1086 -19.5818 -19.3939 -19.3735 -19.3683 -19.3575
   -19.3502 -19.3489 -19.3401 -19.3212 -19.3102 -19.1371 -19.1355 -19.0163
   -18.9574 -18.9563 -18.9339 -18.7596 -18.7398 -18.5249 -18.5189 -18.5114
   -18.4865 -18.4233 -18.4118 -18.3683 -18.3467 -18.3195 -18.3138 -16.5712
   -14.6655 -13.1013 -12.7563 -12.7513 -12.7299 -12.6927 -12.6844 -12.6206
   -12.5400 -12.5181 -12.4978 -12.4611 -12.4005 -12.1205 -12.0536 -12.0445
   -12.0106 -11.9643 -11.9297 -11.5328 -11.3938 -11.3886 -11.3709 -11.3681
   -11.3442 -11.3382 -11.3360 -11.3057 -11.2710 -11.0432 -10.9975 -10.8463
   -10.6911 -10.6846 -10.6609 -10.6430 -10.4945 -10.0631 -10.0206  -9.9852
    -9.8912  -9.8441  -9.7817  -9.4042  -9.2910  -9.2811  -9.2757  -9.2606
    -9.2539  -9.1840  -9.0355  -8.9064  -8.8878  -8.8690  -8.8678  -8.8615
    -8.8537  -8.8427  -8.8351  -8.8237  -8.8193  -8.8060  -8.8055  -8.8037
    -8.7909  -8.7813  -8.7626  -8.7289  -8.7225  -8.6300  -8.6192  -8.5956
    -8.4552  -8.4345  -8.1642  -8.1502  -8.1489  -8.0874  -8.0737  -7.8636
    -7.8467  -7.7894  -7.7756  -7.7709  -7.6905  -7.6491  -7.5610  -7.4982
    -7.4961  -7.4427  -7.4241  -7.4108  -7.3789  -7.3781  -7.3773  -7.3497
    -7.3088  -7.2998  -7.2858  -7.2643  -7.1938  -7.1621  -7.1040  -7.0016
    -6.9813  -6.9673  -6.8691  -6.7751  -6.6103  -6.5047  -6.1890  -6.1661
    -6.1539  -6.1348  -6.0452  -6.0409  -6.0282  -6.0230  -6.0205  -6.0134
    -6.0052  -5.9945  -5.9730  -5.9551  -5.7516  -5.7448  -5.7376  -5.6407
    -5.4786  -5.4224  -5.4109  -5.3939  -5.2026  -5.1749  -4.9780  -4.9087
    -4.7468  -4.7396  -4.7306  -4.7072  -4.6157  -4.6079  -4.5217  -4.4833
    -4.4655  -4.4593  -3.8741  -2.6726   0.1930   0.5559   0.7162   0.7497
     0.7530   0.7712   0.7842   0.7898   0.7922   0.8156   0.8240   0.8302
     0.8453   0.8527   0.8604   0.8984   0.9308   0.9354   0.9477   0.9797
     1.0705   1.2201   1.2574   1.2972   1.3031   1.3258   1.3317   1.3370
     1.3468   1.3492   1.3707   1.3939   1.4117   1.4359   1.4397   1.4432
     1.4483   1.4535   1.4811   1.8882   2.1109   2.1144   2.1211   2.1291
     2.1518   2.1655   2.2156   2.2561   2.3364

     highest occupied, lowest unoccupied level (ev):    -0.1951   -3.8741

!    total energy              =   -1940.18420389 Ry
     Harris-Foulkes estimate   =   -1940.18420384 Ry
     estimated scf accuracy    <       0.00000033 Ry

     total all-electron energy =     -7770.008681 Ry

     The total energy is the sum of the following terms:

     one-electron contribution =  -10670.01693500 Ry
     hartree contribution      =    5420.89598947 Ry
     xc contribution           =    -430.98298615 Ry
[...]
     atom:   55    charge:    2.6547    magn:    0.0006    constr:    0.0000
     atom:   56    charge:    2.6583    magn:    0.0002    constr:    0.0000
     atom:   57    charge:    2.6600    magn:    0.0019    constr:    0.0000
     atom:   58    charge:    2.6600    magn:    0.0080    constr:    0.0000
     atom:   59    charge:    2.6532    magn:    0.0204    constr:    0.0000
     atom:   60    charge:    2.6532    magn:    0.0097    constr:    0.0000
     atom:   61    charge:    2.6593    magn:    0.0119    constr:    0.0000
     atom:   62    charge:    2.6548    magn:    0.0054    constr:    0.0000
     atom:   63    charge:    2.6547    magn:    0.0006    constr:    0.0000
     atom:   64    charge:    2.6629    magn:    0.0002    constr:    0.0000
     atom:   65    charge:    2.6631    magn:    0.0033    constr:    0.0000
     atom:   66    charge:    2.6617    magn:    0.0206    constr:    0.0000
     atom:   67    charge:    1.7504    magn:    0.1857    constr:    0.0000
     atom:   68    charge:    2.6514    magn:    0.0691    constr:    0.0000
     atom:   69    charge:    2.6593    magn:    0.0119    constr:    0.0000
     atom:   70    charge:    2.6638    magn:    0.0004    constr:    0.0000
     atom:   71    charge:    2.6630    magn:    0.0002    constr:    0.0000
     atom:   72    charge:    2.6580    magn:    0.0000    constr:    0.0000
     atom:   73    charge:    2.6528    magn:    0.0088    constr:    0.0000
     atom:   74    charge:    2.6256    magn:    0.0856    constr:    0.0000
     atom:   75    charge:    1.7504    magn:    0.1857    constr:    0.0000
     atom:   76    charge:    2.6532    magn:    0.0097    constr:    0.0000
     atom:   77    charge:    2.6626    magn:    0.0008    constr:    0.0000
     atom:   78    charge:    2.6604    magn:    0.0002    constr:    0.0000
     atom:   79    charge:    2.6578    magn:    0.0000    constr:    0.0000
     atom:   80    charge:    2.6499    magn:    0.0034    constr:    0.0000
     atom:   81    charge:    2.6529    magn:    0.0088    constr:    0.0000
     atom:   82    charge:    2.6617    magn:    0.0206    constr:    0.0000
     atom:   83    charge:    2.6532    magn:    0.0204    constr:    0.0000
     atom:   84    charge:    2.6517    magn:    0.0057    constr:    0.0000
     atom:   85    charge:    2.6595    magn:    0.0003    constr:    0.0000
     atom:   86    charge:    2.6586    magn:    0.0000    constr:    0.0000
     atom:   87    charge:    2.6578    magn:    0.0000    constr:    0.0000
     atom:   88    charge:    2.6580    magn:    0.0000    constr:    0.0000
     atom:   89    charge:    2.6631    magn:    0.0033    constr:    0.0000
     atom:   90    charge:    2.6600    magn:    0.0080    constr:    0.0000
     atom:   91    charge:    2.6637    magn:   -0.0005    constr:    0.0000
     atom:   92    charge:    2.6643    magn:   -0.0001    constr:    0.0000
     atom:   93    charge:    2.6595    magn:    0.0003    constr:    0.0000
     atom:   94    charge:    2.6604    magn:    0.0002    constr:    0.0000
     atom:   95    charge:    2.6630    magn:    0.0002    constr:    0.0000
     atom:   96    charge:    2.6629    magn:    0.0002    constr:    0.0000
     atom:   97    charge:    2.6600    magn:    0.0019    constr:    0.0000
     atom:   98    charge:    2.6634    magn:    0.0005    constr:    0.0000

     total cpu time spent up to now is     5191.7 secs

     End of self-consistent calculation

 ------ SPIN UP ------------


          k = 0.0000 0.0000 0.0000 ( 77471 PWs)   bands (ev):

   -21.8574 -21.6354 -21.3799 -21.3723 -21.3548 -21.2946 -21.2787 -20.8804
   -20.6469 -20.6355 -20.6138 -20.5381 -20.5328 -20.4135 -20.2812 -20.2802
   -20.2648 -20.1250 -20.1119 -19.5897 -19.4041 -19.3898 -19.3803 -19.3772
   -19.3679 -19.3591 -19.3577 -19.3177 -19.3088 -19.1634 -19.1495 -19.0260
   -18.9606 -18.9572 -18.9366 -18.7659 -18.7599 -18.5390 -18.5318 -18.5135
   -18.5123 -18.4565 -18.4184 -18.3818 -18.3524 -18.3323 -18.3292 -16.9542
   -15.1126 -13.2237 -12.7674 -12.7645 -12.7359 -12.7062 -12.6992 -12.6410
   -12.5511 -12.5200 -12.5135 -12.4891 -12.4101 -12.1478 -12.0552 -12.0510
   -12.0136 -11.9845 -11.9431 -11.5641 -11.4192 -11.4084 -11.3813 -11.3804
   -11.3542 -11.3541 -11.3493 -11.3128 -11.2997 -11.1022 -11.0610 -10.8695
   -10.7105 -10.6959 -10.6670 -10.6550 -10.5123 -10.0691 -10.0285 -10.0035
    -9.9331  -9.8802  -9.8202  -9.3941  -9.3548  -9.3144  -9.3102  -9.2777
    -9.2665  -9.2138  -9.0558  -8.9959  -8.9489  -8.9086  -8.8969  -8.8882
    -8.8863  -8.8790  -8.8710  -8.8471  -8.8180  -8.8163  -8.8126  -8.8122
    -8.7955  -8.7907  -8.7899  -8.7565  -8.7530  -8.7292  -8.6634  -8.6427
    -8.4698  -8.4686  -8.2041  -8.1789  -8.1757  -8.1100  -8.0821  -8.0120
    -7.8790  -7.8231  -7.8230  -7.7959  -7.7512  -7.7300  -7.5627  -7.5064
    -7.4901  -7.4671  -7.4568  -7.4351  -7.4213  -7.3880  -7.3866  -7.3405
    -7.3371  -7.3358  -7.3268  -7.2805  -7.2737  -7.2301  -7.2237  -7.0417
    -7.0195  -6.9864  -6.9157  -6.8248  -6.6613  -6.5667  -6.3163  -6.1868
    -6.1772  -6.1421  -6.0823  -6.0790  -6.0701  -6.0572  -6.0536  -6.0483
    -6.0364  -6.0309  -6.0225  -5.9973  -5.9388  -5.8336  -5.8233  -5.7331
    -5.5427  -5.4443  -5.4401  -5.4349  -5.3901  -5.2934  -5.1839  -5.1455
    -4.8019  -4.7904  -4.7710  -4.7531  -4.7179  -4.6699  -4.5677  -4.5131
    -4.5110  -4.4908  -4.4891  -3.8073  -0.2873   0.1797   0.6633   0.6713
     0.7085   0.7225   0.7257   0.7329   0.7935   0.7945   0.8093   0.8156
     0.8204   0.8335   0.8402   0.8498   0.8711   0.8869   0.9100   0.9150
     0.9369   1.1107   1.1930   1.2144   1.2302   1.2484   1.2894   1.3222
     1.3280   1.3319   1.3418   1.3527   1.3797   1.4380   1.4403   1.4436
     1.4505   1.4579   1.4746   1.8837   2.0384   2.0966   2.1011   2.1125
     2.1129   2.1246   2.1314   2.2090   2.3014

 ------ SPIN DOWN ----------


          k = 0.0000 0.0000 0.0000 ( 77471 PWs)   bands (ev):

   -21.7545 -21.5414 -21.3746 -21.3652 -21.3490 -21.2767 -21.2257 -20.8210
   -20.6371 -20.6171 -20.6010 -20.5276 -20.5125 -20.3978 -20.2672 -20.2639
   -20.2408 -20.0897 -20.0754 -19.5445 -19.3945 -19.3792 -19.3740 -19.3682
   -19.3586 -19.3515 -19.3380 -19.2914 -19.2868 -19.1389 -19.1360 -19.0104
   -18.9486 -18.9486 -18.9106 -18.7452 -18.7308 -18.5254 -18.5192 -18.4986
   -18.4919 -18.4466 -18.3967 -18.3739 -18.3430 -18.3227 -18.3090 -16.4068
   -14.6008 -13.0457 -12.7558 -12.7491 -12.7284 -12.6990 -12.6929 -12.6259
   -12.5402 -12.5071 -12.4995 -12.4499 -12.3855 -12.1259 -12.0427 -12.0365
   -12.0024 -11.9599 -11.9153 -11.5196 -11.3942 -11.3833 -11.3734 -11.3636
   -11.3496 -11.3418 -11.3408 -11.2899 -11.2679 -11.0324 -11.0072 -10.8444
   -10.7017 -10.6907 -10.6521 -10.6208 -10.4781 -10.0452 -10.0056  -9.9849
    -9.9022  -9.8416  -9.7857  -9.3751  -9.2960  -9.2818  -9.2786  -9.2666
    -9.2595  -9.2045  -9.0295  -8.9248  -8.8914  -8.8913  -8.8820  -8.8728
    -8.8645  -8.8626  -8.8347  -8.8281  -8.8053  -8.8052  -8.8050  -8.7875
    -8.7819  -8.7799  -8.7779  -8.7041  -8.6983  -8.6249  -8.6007  -8.5403
    -8.4438  -8.4097  -8.2004  -8.1728  -8.1725  -8.0592  -8.0543  -7.8492
    -7.8240  -7.7999  -7.7754  -7.7645  -7.6844  -7.6405  -7.5360  -7.4919
    -7.4784  -7.4509  -7.4308  -7.4182  -7.3811  -7.3789  -7.3698  -7.3279
    -7.3025  -7.2967  -7.2732  -7.2639  -7.2008  -7.1364  -7.0699  -7.0143
    -7.0110  -6.9803  -6.8348  -6.7629  -6.6209  -6.5204  -6.1739  -6.1638
    -6.1377  -6.1298  -6.0557  -6.0428  -6.0345  -6.0315  -6.0282  -6.0229
    -6.0113  -5.9924  -5.9482  -5.9413  -5.7940  -5.7505  -5.7437  -5.6865
    -5.4771  -5.4194  -5.4070  -5.3857  -5.1890  -5.1766  -5.0770  -5.0041
    -4.7551  -4.7432  -4.7253  -4.7185  -4.6380  -4.6067  -4.5287  -4.4842
    -4.4700  -4.4630  -3.8223  -2.6924   0.1895   0.5392   0.7135   0.7258
     0.7373   0.7554   0.7697   0.7761   0.7933   0.8112   0.8158   0.8222
     0.8323   0.8386   0.8609   0.8754   0.9075   0.9408   0.9421   0.9705
     1.0457   1.1951   1.2547   1.2838   1.2893   1.3222   1.3265   1.3316
     1.3421   1.3458   1.3492   1.3865   1.4110   1.4359   1.4377   1.4414
     1.4487   1.4567   1.4853   1.8893   2.1027   2.1063   2.1161   2.1234
     2.1598   2.2274   2.3139   2.3518   2.4435

     highest occupied, lowest unoccupied level (ev):    -0.2873   -3.8223

!    total energy              =   -1940.19875034 Ry
     Harris-Foulkes estimate   =   -1940.19875034 Ry
     estimated scf accuracy    <          2.2E-09 Ry

     total all-electron energy =     -7770.023227 Ry

     The total energy is the sum of the following terms:

     one-electron contribution =  -10644.11454050 Ry
     hartree contribution      =    5407.83445305 Ry
     xc contribution           =    -430.73134357 Ry
     ewald contribution        =    4370.25804649 Ry
     DFT-D3 Dispersion         =      -0.27012906 Ry
     one-center paw contrib.   =    -643.17523675 Ry

     total magnetization       =     3.00 Bohr mag/cell
     absolute magnetization    =     3.17 Bohr mag/cell

     convergence has been achieved in  16 iterations

     negative rho (up, down):  4.825E-01 1.318E-02

     Forces acting on atoms (cartesian axes, Ry/au):

     atom    1 type  1   force =    -0.00022460   -0.00038810    0.00000000
     atom    2 type  1   force =    -0.00044098   -0.00041684    0.00000000
     atom    3 type  1   force =    -0.00049563   -0.00007999    0.00000000
     atom    4 type  1   force =    -0.00010718    0.00004018    0.00000000
     atom    5 type  1   force =     0.00037712   -0.00051165    0.00000000
     atom    6 type  1   force =     0.00022057   -0.00007834    0.00000000
     atom    7 type  1   force =    -0.00029810    0.00018048    0.00000000
     atom    8 type  1   force =    -0.00028488    0.00006823    0.00000000
     atom    9 type  1   force =    -0.00019158   -0.00021837    0.00000000
     atom   10 type  1   force =    -0.00046967   -0.00034228    0.00000000
     atom   11 type  1   force =    -0.00045033   -0.00028753    0.00000000
     atom   12 type  1   force =     0.00043150   -0.00020796    0.00000000
     atom   13 type  1   force =     0.00048850   -0.00027517    0.00000000
     atom   14 type  1   force =     0.00018419   -0.00014187    0.00000000
     atom   15 type  1   force =     0.00006103   -0.00011423    0.00000000
     atom   16 type  1   force =    -0.00013476   -0.00020309    0.00000000
     atom   17 type  1   force =    -0.00002979   -0.00049237    0.00000000
     atom   18 type  1   force =    -0.00035025   -0.00027549    0.00000000
     atom   19 type  1   force =    -0.00034000    0.00019800    0.00000000
     atom   20 type  1   force =     0.00039676   -0.00026252    0.00000000
     atom   21 type  1   force =     0.00063197   -0.00006536    0.00000000
     atom   22 type  1   force =     0.00042445   -0.00035432    0.00000000
     atom   23 type  1   force =    -0.00005428    0.00014941    0.00000000
     atom   24 type  1   force =     0.00000477   -0.00016035    0.00000000
     atom   25 type  4   force =     0.00051534   -0.00029959    0.00000000
     atom   26 type  1   force =     0.00006400    0.00044110    0.00000000
     atom   27 type  1   force =     0.00002234    0.00053631    0.00000000
     atom   28 type  1   force =    -0.00009303    0.00007517    0.00000000
     atom   29 type  1   force =     0.00004414    0.00011724    0.00000000
     atom   30 type  1   force =     0.00008947   -0.00016189    0.00000000
     atom   31 type  1   force =    -0.00010405    0.00005752    0.00000000
     atom   32 type  1   force =     0.00013972    0.00007289    0.00000000
     atom   33 type  1   force =     0.00040749    0.00026955    0.00000000
     atom   34 type  1   force =     0.00005769    0.00057712    0.00000000
     atom   35 type  1   force =    -0.00018353    0.00047014    0.00000000
     atom   36 type  1   force =    -0.00013654    0.00020235    0.00000000
     atom   37 type  1   force =     0.00004327   -0.00002674    0.00000000
     atom   38 type  1   force =     0.00018354   -0.00000179    0.00000000
     atom   39 type  1   force =    -0.00015952   -0.00003328    0.00000000
     atom   40 type  1   force =     0.00010226    0.00021402    0.00000000
     atom   41 type  1   force =     0.00008779    0.00027500    0.00000000
     atom   42 type  1   force =     0.00013674    0.00059383    0.00000000
     atom   43 type  1   force =    -0.00003010    0.00001928    0.00000000
     atom   44 type  1   force =    -0.00024180    0.00001538    0.00000000
     atom   45 type  1   force =    -0.00007840   -0.00010260    0.00000000
     atom   46 type  1   force =     0.00051864   -0.00019609    0.00000000
     atom   47 type  1   force =     0.00012749    0.00000293    0.00000000
     atom   48 type  1   force =    -0.00020281    0.00021743    0.00000000
     atom   49 type  1   force =     0.00022427    0.00039726    0.00000000
     atom   50 type  2   force =     0.00056297    0.00003446    0.00000000
     atom   51 type  2   force =     0.00042698    0.00017471    0.00000000
     atom   52 type  2   force =    -0.00014098   -0.00010089    0.00000000
     atom   53 type  2   force =     0.00003475    0.00004316    0.00000000
     atom   54 type  2   force =     0.00055560    0.00025756    0.00000000
     atom   55 type  2   force =     0.00019676    0.00003314    0.00000000
     atom   56 type  2   force =     0.00028528   -0.00017356    0.00000000
     atom   57 type  2   force =    -0.00007500   -0.00011482    0.00000000
     atom   58 type  2   force =     0.00004156    0.00001233    0.00000000
     atom   59 type  2   force =    -0.00018976   -0.00033201    0.00000000
     atom   60 type  2   force =    -0.00018502   -0.00010121    0.00000000
     atom   61 type  2   force =    -0.00000578   -0.00011662    0.00000000
     atom   62 type  2   force =     0.00024477   -0.00014527    0.00000000
     atom   63 type  2   force =     0.00006684   -0.00019672    0.00000000
     atom   64 type  2   force =    -0.00036069   -0.00009485    0.00000000
     atom   65 type  2   force =    -0.00035503   -0.00004104    0.00000000
     atom   66 type  2   force =    -0.00004791    0.00003399    0.00000000
     atom   67 type  3   force =    -0.00032745   -0.00039028    0.00000000
     atom   68 type  2   force =    -0.00011514    0.00006506    0.00000000
     atom   69 type  2   force =     0.00009867    0.00005976    0.00000000
     atom   70 type  2   force =     0.00005654   -0.00061606    0.00000000
     atom   71 type  2   force =     0.00001879   -0.00040302    0.00000000
     atom   72 type  2   force =    -0.00053472    0.00004679    0.00000000
     atom   73 type  2   force =    -0.00044767    0.00003555    0.00000000
     atom   74 type  2   force =    -0.00012891    0.00007609    0.00000000
     atom   75 type  5   force =     0.00017580    0.00048129    0.00000000
     atom   76 type  2   force =    -0.00000275    0.00021082    0.00000000
     atom   77 type  2   force =    -0.00001545   -0.00005440    0.00000000
     atom   78 type  2   force =    -0.00008583   -0.00036670    0.00000000
     atom   79 type  2   force =    -0.00038562    0.00017660    0.00000000
     atom   80 type  2   force =    -0.00044343    0.00025863    0.00000000
     atom   81 type  2   force =    -0.00025211    0.00037468    0.00000000
     atom   82 type  2   force =    -0.00004617    0.00002849    0.00000000
     atom   83 type  2   force =     0.00019861    0.00033322    0.00000000
     atom   84 type  2   force =     0.00002187    0.00017182    0.00000000
     atom   85 type  2   force =    -0.00024311   -0.00035809    0.00000000
     atom   86 type  2   force =    -0.00013271    0.00007735    0.00000000
     atom   87 type  2   force =    -0.00034464    0.00024951    0.00000000
     atom   88 type  2   force =    -0.00030590    0.00044587    0.00000000
     atom   89 type  2   force =    -0.00013794    0.00033314    0.00000000
     atom   90 type  2   force =     0.00001509   -0.00004112    0.00000000
     atom   91 type  2   force =     0.00006521   -0.00046138    0.00000000
     atom   92 type  2   force =     0.00034118   -0.00020324    0.00000000
     atom   93 type  2   force =     0.00018489    0.00038895    0.00000000
     atom   94 type  2   force =     0.00027223    0.00026115    0.00000000
     atom   95 type  2   force =     0.00035661    0.00019014    0.00000000
     atom   96 type  2   force =    -0.00009983    0.00036164    0.00000000
     atom   97 type  2   force =     0.00005865    0.00011842    0.00000000
     atom   98 type  2   force =     0.00024667   -0.00051608    0.00000000

     Total force =     0.003752     Total SCF correction =     0.000084


     Computing stress (Cartesian axis) and pressure


     negative rho (up, down):  4.825E-01 1.318E-02
          total   stress  (Ry/bohr**3)                   (kbar)     P=   -0.12
   0.00000040   0.00000001   0.00000000          0.06      0.00      0.00
   0.00000001   0.00000042   0.00000000          0.00      0.06      0.00
   0.00000000   0.00000000  -0.00000335          0.00      0.00     -0.49


     Writing output data file C2Cn.save/
 
     init_run     :     10.90s CPU     11.35s WALL (       2 calls)
     electrons    :   4939.10s CPU   4975.25s WALL (      10 calls)
     update_pot   :     28.98s CPU     29.16s WALL (       8 calls)
     forces       :     42.27s CPU     43.43s WALL (      10 calls)
     stress       :    134.65s CPU    135.43s WALL (      10 calls)

     Called by init_run:
     wfcinit      :      4.48s CPU      4.67s WALL (       2 calls)
     potinit      :      2.31s CPU      2.36s WALL (       2 calls)
     hinit0       :      3.16s CPU      3.22s WALL (       2 calls)

     Called by electrons:
     c_bands      :   4795.69s CPU   4823.89s WALL (     101 calls)
     sum_band     :     76.33s CPU     78.88s WALL (     101 calls)
     v_of_rho     :     22.67s CPU     23.32s WALL (     108 calls)
     newd         :      7.87s CPU      9.63s WALL (     108 calls)
     PAW_pot      :     24.87s CPU     25.13s WALL (     116 calls)
     mix_rho      :      1.81s CPU      2.04s WALL (     101 calls)

     Called by c_bands:
     init_us_2    :      4.22s CPU      4.35s WALL (     464 calls)
     rcgdiagg     :   4657.50s CPU   4682.56s WALL (     226 calls)
     wfcrot       :    139.00s CPU    141.34s WALL (     204 calls)

     Called by sum_band:
     sum_band:bec :      0.14s CPU      0.15s WALL (     218 calls)
     addusdens    :      8.26s CPU     10.11s WALL (     101 calls)

     Called by *cgdiagg:
     h_psi        :   2435.42s CPU   2449.52s WALL (  185923 calls)
     s_psi        :   1365.59s CPU   1373.00s WALL (  371642 calls)
     rdiaghg      :      3.54s CPU      3.67s WALL (     204 calls)

     Called by h_psi:
     h_psi:pot    :   2432.79s CPU   2446.85s WALL (  185923 calls)
     h_psi:calbec :    821.40s CPU    825.21s WALL (  185923 calls)
     vloc_psi     :    916.98s CPU    924.50s WALL (  185923 calls)
     add_vuspsi   :    692.01s CPU    695.54s WALL (  185923 calls)
     hs_1psi      :   2998.09s CPU   3013.74s WALL (  185719 calls)
     s_1psi       :   1392.60s CPU   1399.45s WALL (  185719 calls)

     General routines
     calbec       :   1540.22s CPU   1549.25s WALL (  371960 calls)
     fft          :     19.70s CPU     19.95s WALL (    2160 calls)
     ffts         :      0.80s CPU      0.81s WALL (     202 calls)
     fftw         :    885.31s CPU    892.46s WALL (  447052 calls)
 
     Parallel routines
     fft_scatt_xy :    129.64s CPU    130.45s WALL (  449414 calls)
     fft_scatt_yz :    242.15s CPU    244.98s WALL (  449414 calls)
 
     PWSCF        :      1h26m CPU      1h26m WALL

 
   This run was terminated on:   1:10:40   8Jun2021            

=------------------------------------------------------------------------------=
   JOB DONE.
=------------------------------------------------------------------------------=
