
     Program PWSCF v.6.4.1 starts on  2Jul2021 at 10:14:11 

     This program is part of the open-source Quantum ESPRESSO suite
     for quantum simulation of materials; please cite
         "P. Giannozzi et al., J. Phys.:Condens. Matter 21 395502 (2009);
         "P. Giannozzi et al., J. Phys.:Condens. Matter 29 465901 (2017);
          URL http://www.quantum-espresso.org", 
     in publications or presentations arising from this work. More details at
     http://www.quantum-espresso.org/quote

     Parallel version (MPI), running on    64 processors

     MPI processes distributed on     2 nodes
     R & G space division:  proc/nbgrp/npool/nimage =      64
     Waiting for input...
     Reading input from standard input

     Current dimensions of program PWSCF are:
     Max number of different atomic species (ntypx) = 10
     Max number of k-points (npk) =  40000
     Max angular momentum in pseudopotentials (lmaxx) =  3
               file N.pbe-n-kjpaw_psl.1.0.0.UPF: wavefunction(s)  2S renormalized
               file C.pbe-n-kjpaw_psl.1.0.0.UPF: wavefunction(s)  2S 2P renormalized
               file C.pbe-n-kjpaw_psl.1.0.0.UPF: wavefunction(s)  2S 2P renormalized
               file C.pbe-n-kjpaw_psl.1.0.0.UPF: wavefunction(s)  2S 2P renormalized

     --------------------------------------------
     Parameters for DFT-D3 Dispersion Correction:
     --------------------------------------------
       Reference C6 values for interpolation: 

         atom   Coordination number   C6
         B          0.000           214.36
         B          0.971           150.74
         B          1.944           106.23
         B          2.913            62.89
         B          4.586            56.06
         C1         0.000            98.23
         C1         0.987            86.49
         C1         1.998            58.72
         C1         2.999            51.56
         C1         3.984            36.41
         C2         0.000            98.23
         C2         0.987            86.49
         C2         1.998            58.72
         C2         2.999            51.56
         C2         3.984            36.41
         C3         0.000            98.23
         C3         0.987            86.49
         C3         1.998            58.72
         C3         2.999            51.56
         C3         3.984            36.41
         N          0.000            50.54
         N          0.994            44.25
         N          2.014            39.35
         N          2.990            31.16

       Values used:

         atom   Coordination number  R0_AB[au]  C6      C8
         B          3.326            3.039     62.90   2506.23
         B          3.317            3.039     62.90   2506.44
         B          3.318            3.039     62.90   2506.42
         B          3.323            3.039     62.90   2506.30
         B          3.325            3.039     62.90   2506.25
         B          3.323            3.039     62.90   2506.30
         B          3.326            3.039     62.90   2506.24
         B          3.323            3.039     62.90   2506.30
         B          3.321            3.039     62.90   2506.35
         B          3.306            3.039     62.91   2506.68
         B          3.318            3.039     62.90   2506.41
         B          3.324            3.039     62.90   2506.27
         B          3.323            3.039     62.90   2506.31
         B          3.323            3.039     62.90   2506.30
         B          3.322            3.039     62.90   2506.31
         B          3.324            3.039     62.90   2506.29
         B          3.294            3.039     62.92   2506.96
         B          3.282            3.039     62.92   2507.23
         B          3.320            3.039     62.90   2506.38
         B          3.324            3.039     62.90   2506.27
         B          3.325            3.039     62.90   2506.25
         B          3.322            3.039     62.90   2506.33
         B          3.317            3.039     62.90   2506.44
         B          3.306            3.039     62.91   2506.69
         C2         3.241            2.750     49.55   1433.01
         B          3.282            3.039     62.92   2507.23
         B          3.318            3.039     62.90   2506.41
         B          3.323            3.039     62.90   2506.30
         B          3.320            3.039     62.90   2506.38
         B          3.317            3.039     62.90   2506.44
         B          3.308            3.039     62.91   2506.64
         B          3.306            3.039     62.91   2506.69
         B          3.294            3.039     62.92   2506.96
         B          3.306            3.039     62.91   2506.68
         B          3.318            3.039     62.90   2506.42
         B          3.316            3.039     62.90   2506.46
         B          3.317            3.039     62.90   2506.45
         B          3.317            3.039     62.90   2506.44
         B          3.317            3.039     62.90   2506.44
         B          3.324            3.039     62.90   2506.29
         B          3.321            3.039     62.90   2506.35
         B          3.317            3.039     62.90   2506.44
         B          3.319            3.039     62.90   2506.40
         B          3.316            3.039     62.90   2506.46
         B          3.320            3.039     62.90   2506.38
         B          3.322            3.039     62.90   2506.33
         B          3.322            3.039     62.90   2506.31
         B          3.323            3.039     62.90   2506.30
         B          3.326            3.039     62.90   2506.23
         N          3.129            2.478     31.22    688.74
         N          3.128            2.478     31.22    688.75
         N          3.126            2.478     31.22    688.78
         N          3.128            2.478     31.22    688.76
         N          3.129            2.478     31.22    688.74
         N          3.128            2.478     31.22    688.75
         N          3.128            2.478     31.22    688.75
         N          3.128            2.478     31.22    688.76
         N          3.128            2.478     31.22    688.75
         N          3.125            2.478     31.22    688.79
         N          3.123            2.478     31.22    688.80
         N          3.129            2.478     31.22    688.74
         N          3.128            2.478     31.22    688.75
         N          3.128            2.478     31.22    688.75
         N          3.129            2.478     31.22    688.75
         N          3.129            2.478     31.22    688.75
         N          3.130            2.478     31.22    688.74
         C1         3.179            2.750     50.28   1454.13
         N          3.127            2.478     31.22    688.77
         N          3.129            2.478     31.22    688.74
         N          3.129            2.478     31.22    688.74
         N          3.128            2.478     31.22    688.75
         N          3.127            2.478     31.22    688.77
         N          3.124            2.478     31.22    688.80
         N          3.145            2.478     31.21    688.60
         C3         3.179            2.750     50.28   1454.13
         N          3.123            2.478     31.22    688.80
         N          3.128            2.478     31.22    688.76
         N          3.127            2.478     31.22    688.77
         N          3.126            2.478     31.22    688.77
         N          3.125            2.478     31.22    688.78
         N          3.124            2.478     31.22    688.80
         N          3.130            2.478     31.22    688.74
         N          3.125            2.478     31.22    688.79
         N          3.126            2.478     31.22    688.78
         N          3.126            2.478     31.22    688.77
         N          3.126            2.478     31.22    688.77
         N          3.126            2.478     31.22    688.77
         N          3.127            2.478     31.22    688.77
         N          3.129            2.478     31.22    688.75
         N          3.128            2.478     31.22    688.75
         N          3.128            2.478     31.22    688.75
         N          3.129            2.478     31.22    688.74
         N          3.126            2.478     31.22    688.77
         N          3.127            2.478     31.22    688.77
         N          3.128            2.478     31.22    688.75
         N          3.129            2.478     31.22    688.75
         N          3.128            2.478     31.22    688.76
         N          3.129            2.478     31.22    688.74

         Molecular C6 ( Ry / a.u.^6 ) =    437743.20


     gamma-point specific algorithms are used

     Subspace diagonalization in iterative solution of the eigenvalue problem:
     one sub-group per band group will be used
     scalapack distributed-memory algorithm (size of sub-group:  5*  5 procs)

     Message from routine setup:
     DEPRECATED: symmetry with ibrav=0, use correct ibrav instead
 
     Parallelization info
     --------------------
     sticks:   dense  smooth     PW     G-vecs:    dense   smooth      PW
     Min         189     189     46                19338    19338    2406
     Max         192     192     48                19350    19350    2428
     Sum       12175   12175   3055              1238151  1238151  154935
 


     bravais-lattice index     =            0
     lattice parameter (alat)  =      33.2346  a.u.
     unit-cell volume          =   36232.1385 (a.u.)^3
     number of atoms/cell      =           98
     number of atomic types    =            5
     number of electrons       =       391.00
     number of Kohn-Sham states=          245
     kinetic-energy cutoff     =      40.0000  Ry
     charge density cutoff     =     160.0000  Ry
     convergence threshold     =      1.0E-12
     mixing beta               =       0.7000
     number of iterations used =            8  plain     mixing
     Exchange-correlation      = SLA PW PBX PBC ( 1  4  3  4 0 0)
     Using LIBXC version       =    4   3   4
     nstep                     =           50


     celldm(1)=  33.234611  celldm(2)=   0.000000  celldm(3)=   0.000000
     celldm(4)=   0.000000  celldm(5)=   0.000000  celldm(6)=   0.000000

     crystal axes: (cart. coord. in units of alat)
               a(1) = (   1.001047   0.000089   0.000000 )  
               a(2) = (  -0.500446   0.866976   0.000000 )  
               a(3) = (   0.000000   0.000000   1.137204 )  

     reciprocal axes: (cart. coord. in units 2 pi/alat)
               b(1) = (  0.998903  0.576598  0.000000 )  
               b(2) = ( -0.000103  1.153375  0.000000 )  
               b(3) = (  0.000000  0.000000  0.879350 )  


     PseudoPot. # 1 for B  read from file:
     ./pseudo/B.pbe-n-kjpaw_psl.1.0.0.UPF
     MD5 check sum: 8c825a5969375aca5c2c6ad5945b3059
     Pseudo is Projector augmented-wave + core cor, Zval =  3.0
     Generated using "atomic" code by A. Dal Corso v.6.3
     Shape of augmentation charge: PSQ
     Using radial grid of 1059 points,  4 beta functions with: 
                l(1) =   0
                l(2) =   0
                l(3) =   1
                l(4) =   1
     Q(r) pseudized with 0 coefficients 


     PseudoPot. # 2 for N  read from file:
     ./pseudo/N.pbe-n-kjpaw_psl.1.0.0.UPF
     MD5 check sum: 14c48229446f9f2d411169a3abcbc3fa
     Pseudo is Projector augmented-wave + core cor, Zval =  5.0
     Generated using "atomic" code by A. Dal Corso v.6.3
     Shape of augmentation charge: PSQ
     Using radial grid of 1085 points,  4 beta functions with: 
                l(1) =   0
                l(2) =   0
                l(3) =   1
                l(4) =   1
     Q(r) pseudized with 0 coefficients 


     PseudoPot. # 3 for C  read from file:
     ./pseudo/C.pbe-n-kjpaw_psl.1.0.0.UPF
     MD5 check sum: 5f16ad9a65e90284d1d834d4ab3b0f7d
     Pseudo is Projector augmented-wave + core cor, Zval =  4.0
     Generated using "atomic" code by A. Dal Corso v.6.3
     Shape of augmentation charge: PSQ
     Using radial grid of 1073 points,  4 beta functions with: 
                l(1) =   0
                l(2) =   0
                l(3) =   1
                l(4) =   1
     Q(r) pseudized with 0 coefficients 


     PseudoPot. # 4 for C  read from file:
     ./pseudo/C.pbe-n-kjpaw_psl.1.0.0.UPF
     MD5 check sum: 5f16ad9a65e90284d1d834d4ab3b0f7d
     Pseudo is Projector augmented-wave + core cor, Zval =  4.0
     Generated using "atomic" code by A. Dal Corso v.6.3
     Shape of augmentation charge: PSQ
     Using radial grid of 1073 points,  4 beta functions with: 
                l(1) =   0
                l(2) =   0
                l(3) =   1
                l(4) =   1
     Q(r) pseudized with 0 coefficients 


     PseudoPot. # 5 for C  read from file:
     ./pseudo/C.pbe-n-kjpaw_psl.1.0.0.UPF
     MD5 check sum: 5f16ad9a65e90284d1d834d4ab3b0f7d
     Pseudo is Projector augmented-wave + core cor, Zval =  4.0
     Generated using "atomic" code by A. Dal Corso v.6.3
     Shape of augmentation charge: PSQ
     Using radial grid of 1073 points,  4 beta functions with: 
                l(1) =   0
                l(2) =   0
                l(3) =   1
                l(4) =   1
     Q(r) pseudized with 0 coefficients 


     atomic species   valence    mass     pseudopotential
        B              3.00    10.00000     B ( 1.00)
        N              5.00    14.00000     N ( 1.00)
        C1             4.00    12.00000     C ( 1.00)
        C2             4.00    12.00000     C ( 1.00)
        C3             4.00    12.00000     C ( 1.00)

     Starting magnetic structure 
     atomic species   magnetization
        B            0.000
        N            0.000
        C1           1.000
        C2           0.000
        C3           0.000

      2 Sym. Ops. (no inversion) found



   Cartesian axes

     site n.     atom                  positions (alat units)
         1           B   tau(   1) = (  -0.0000493   0.0821149   0.5686018  )
         2           B   tau(   2) = (  -0.0715880   0.2061401   0.5686018  )
         3           B   tau(   3) = (  -0.1432594   0.3301975   0.5686018  )
         4           B   tau(   4) = (  -0.2148863   0.4541022   0.5686018  )
         5           B   tau(   5) = (  -0.2859564   0.5779658   0.5686018  )
         6           B   tau(   6) = (  -0.3572408   0.7019363   0.5686018  )
         7           B   tau(   7) = (  -0.4288283   0.8256280   0.5686018  )
         8           B   tau(   8) = (   0.1429048   0.0818348   0.5686018  )
         9           B   tau(   9) = (   0.0710828   0.2051107   0.5686018  )
        10           B   tau(  10) = (  -0.0002602   0.3301725   0.5686018  )
        11           B   tau(  11) = (  -0.0723717   0.4540405   0.5686018  )
        12           B   tau(  12) = (  -0.1438675   0.5780978   0.5686018  )
        13           B   tau(  13) = (  -0.2146591   0.7019773   0.5686018  )
        14           B   tau(  14) = (  -0.2859144   0.8254772   0.5686018  )
        15           B   tau(  15) = (   0.2863347   0.0818351   0.5686018  )
        16           B   tau(  16) = (   0.2148944   0.2048102   0.5686018  )
        17           B   tau(  17) = (   0.1431385   0.3273752   0.5686018  )
        18           B   tau(  18) = (   0.0700038   0.4552483   0.5686018  )
        19           B   tau(  19) = (  -0.0021243   0.5792703   0.5686018  )
        20           B   tau(  20) = (  -0.0719805   0.7026098   0.5686018  )
        21           B   tau(  21) = (  -0.1429106   0.8257283   0.5686018  )
        22           B   tau(  22) = (   0.4291462   0.0825331   0.5686018  )
        23           B   tau(  23) = (   0.3576478   0.2061813   0.5686018  )
        24           B   tau(  24) = (   0.2855394   0.3294077   0.5686018  )
        25           C2  tau(  25) = (   0.2161592   0.4532442   0.5686018  )
        26           B   tau(  26) = (   0.1413460   0.5788165   0.5686018  )
        27           B   tau(  27) = (   0.0712042   0.7027212   0.5686018  )
        28           B   tau(  28) = (  -0.0001065   0.8261116   0.5686018  )
        29           B   tau(  29) = (   0.5719684   0.0826533   0.5686018  )
        30           B   tau(  30) = (   0.5005753   0.2063665   0.5686018  )
        31           B   tau(  31) = (   0.4291403   0.3302795   0.5686018  )
        32           B   tau(  32) = (   0.3580949   0.4550775   0.5686018  )
        33           B   tau(  33) = (   0.2886546   0.5794166   0.5686018  )
        34           B   tau(  34) = (   0.2145328   0.7022048   0.5686018  )
        35           B   tau(  35) = (   0.1430116   0.8260332   0.5686018  )
        36           B   tau(  36) = (   0.7149803   0.0826849   0.5686018  )
        37           B   tau(  37) = (   0.6434631   0.2065402   0.5686018  )
        38           B   tau(  38) = (   0.5721696   0.3303716   0.5686018  )
        39           B   tau(  39) = (   0.5008663   0.4542430   0.5686018  )
        40           B   tau(  40) = (   0.4306771   0.5785566   0.5686018  )
        41           B   tau(  41) = (   0.3585110   0.7029509   0.5686018  )
        42           B   tau(  42) = (   0.2862841   0.8259928   0.5686018  )
        43           B   tau(  43) = (   0.8581601   0.0825849   0.5686018  )
        44           B   tau(  44) = (   0.7864836   0.2065321   0.5686018  )
        45           B   tau(  45) = (   0.7150049   0.3303999   0.5686018  )
        46           B   tau(  46) = (   0.6436979   0.4541477   0.5686018  )
        47           B   tau(  47) = (   0.5728967   0.5781751   0.5686018  )
        48           B   tau(  48) = (   0.5011820   0.7023891   0.5686018  )
        49           B   tau(  49) = (   0.4294624   0.8260510   0.5686018  )
        50           N   tau(  50) = (   0.0714390   0.0409529   0.5686018  )
        51           N   tau(  51) = (  -0.0003459   0.1644262   0.5686018  )
        52           N   tau(  52) = (  -0.0717363   0.2888201   0.5686018  )
        53           N   tau(  53) = (  -0.1435726   0.4127318   0.5686018  )
        54           N   tau(  54) = (  -0.2149375   0.5366009   0.5686018  )
        55           N   tau(  55) = (  -0.2859288   0.6605616   0.5686018  )
        56           N   tau(  56) = (  -0.3573592   0.7843653   0.5686018  )
        57           N   tau(  57) = (   0.2146195   0.0408635   0.5686018  )
        58           N   tau(  58) = (   0.1428538   0.1641136   0.5686018  )
        59           N   tau(  59) = (   0.0709528   0.2875055   0.5686018  )
        60           N   tau(  60) = (  -0.0010293   0.4129127   0.5686018  )
        61           N   tau(  61) = (  -0.0729017   0.5369061   0.5686018  )
        62           N   tau(  62) = (  -0.1432979   0.6607769   0.5686018  )
        63           N   tau(  63) = (  -0.2144269   0.7844065   0.5686018  )
        64           N   tau(  64) = (   0.3577923   0.0411004   0.5686018  )
        65           N   tau(  65) = (   0.2865854   0.1641977   0.5686018  )
        66           N   tau(  66) = (   0.2150960   0.2865080   0.5686018  )
        67           C1  tau(  67) = (   0.1451747   0.4129506   0.5686018  )
        68           N   tau(  68) = (   0.0683977   0.5385544   0.5686018  )
        69           N   tau(  69) = (  -0.0008245   0.6617474   0.5686018  )
        70           N   tau(  70) = (  -0.0715781   0.7849066   0.5686018  )
        71           N   tau(  71) = (   0.5005366   0.0415084   0.5686018  )
        72           N   tau(  72) = (   0.4291373   0.1651641   0.5686018  )
        73           N   tau(  73) = (   0.3574118   0.2891432   0.5686018  )
        74           N   tau(  74) = (   0.2852866   0.4133335   0.5686018  )
        75           C3  tau(  75) = (   0.2155623   0.5348655   0.5686018  )
        76           N   tau(  76) = (   0.1424931   0.6615008   0.5686018  )
        77           N   tau(  77) = (   0.0713781   0.7850373   0.5686018  )
        78           N   tau(  78) = (   0.6434645   0.0415289   0.5686018  )
        79           N   tau(  79) = (   0.5719956   0.1652342   0.5686018  )
        80           N   tau(  80) = (   0.5004656   0.2890999   0.5686018  )
        81           N   tau(  81) = (   0.4289012   0.4129664   0.5686018  )
        82           N   tau(  82) = (   0.3600254   0.5375332   0.5686018  )
        83           N   tau(  83) = (   0.2870899   0.6618660   0.5686018  )
        84           N   tau(  84) = (   0.2146070   0.7847812   0.5686018  )
        85           N   tau(  85) = (   0.7865556   0.0414754   0.5686018  )
        86           N   tau(  86) = (   0.7149637   0.1652593   0.5686018  )
        87           N   tau(  87) = (   0.6435014   0.2890859   0.5686018  )
        88           N   tau(  88) = (   0.5721330   0.4128399   0.5686018  )
        89           N   tau(  89) = (   0.5016940   0.5367766   0.5686018  )
        90           N   tau(  90) = (   0.4299010   0.6612940   0.5686018  )
        91           N   tau(  91) = (   0.3580305   0.7851522   0.5686018  )
        92           N   tau(  92) = (   0.9295814   0.0413498   0.5686018  )
        93           N   tau(  93) = (   0.8579596   0.1651509   0.5686018  )
        94           N   tau(  94) = (   0.7863678   0.2890447   0.5686018  )
        95           N   tau(  95) = (   0.7149216   0.4128341   0.5686018  )
        96           N   tau(  96) = (   0.6439028   0.5366583   0.5686018  )
        97           N   tau(  97) = (   0.5725215   0.6607680   0.5686018  )
        98           N   tau(  98) = (   0.5008539   0.7847213   0.5686018  )

     number of k points=     1
                       cart. coord. in units 2pi/alat
        k(    1) = (   0.0000000   0.0000000   0.0000000), wk =   1.0000000

     Dense  grid:   619076 G-vectors     FFT dimensions: ( 135, 135, 160)

     Occupations read from input 

      Spin-up

        1.0000   1.0000   1.0000   1.0000   1.0000   1.0000   1.0000   1.0000
        1.0000   1.0000   1.0000   1.0000   1.0000   1.0000   1.0000   1.0000
        1.0000   1.0000   1.0000   1.0000   1.0000   1.0000   1.0000   1.0000
        1.0000   1.0000   1.0000   1.0000   1.0000   1.0000   1.0000   1.0000
        1.0000   1.0000   1.0000   1.0000   1.0000   1.0000   1.0000   1.0000
        1.0000   1.0000   1.0000   1.0000   1.0000   1.0000   1.0000   1.0000
        1.0000   1.0000   1.0000   1.0000   1.0000   1.0000   1.0000   1.0000
        1.0000   1.0000   1.0000   1.0000   1.0000   1.0000   1.0000   1.0000
        1.0000   1.0000   1.0000   1.0000   1.0000   1.0000   1.0000   1.0000
        1.0000   1.0000   1.0000   1.0000   1.0000   1.0000   1.0000   1.0000
        1.0000   1.0000   1.0000   1.0000   1.0000   1.0000   1.0000   1.0000
        1.0000   1.0000   1.0000   1.0000   1.0000   1.0000   1.0000   1.0000
        1.0000   1.0000   1.0000   1.0000   1.0000   1.0000   1.0000   1.0000
        1.0000   1.0000   1.0000   1.0000   1.0000   1.0000   1.0000   1.0000
        1.0000   1.0000   1.0000   1.0000   1.0000   1.0000   1.0000   1.0000
        1.0000   1.0000   1.0000   1.0000   1.0000   1.0000   1.0000   1.0000
        1.0000   1.0000   1.0000   1.0000   1.0000   1.0000   1.0000   1.0000
        1.0000   1.0000   1.0000   1.0000   1.0000   1.0000   1.0000   1.0000
        1.0000   1.0000   1.0000   1.0000   1.0000   1.0000   1.0000   1.0000
        1.0000   1.0000   1.0000   1.0000   1.0000   1.0000   1.0000   1.0000
        1.0000   1.0000   1.0000   1.0000   1.0000   1.0000   1.0000   1.0000
        1.0000   1.0000   1.0000   1.0000   1.0000   1.0000   1.0000   1.0000
        1.0000   1.0000   1.0000   1.0000   1.0000   1.0000   1.0000   1.0000
        1.0000   1.0000   1.0000   1.0000   1.0000   1.0000   1.0000   1.0000
        1.0000   1.0000   0.0000   1.0000   1.0000   0.0000   0.0000   0.0000
        0.0000   0.0000   0.0000   0.0000   0.0000   0.0000   0.0000   0.0000
        0.0000   0.0000   0.0000   0.0000   0.0000   0.0000   0.0000   0.0000
        0.0000   0.0000   0.0000   0.0000   0.0000   0.0000   0.0000   0.0000
        0.0000   0.0000   0.0000   0.0000   0.0000   0.0000   0.0000   0.0000
        0.0000   0.0000   0.0000   0.0000   0.0000   0.0000   0.0000   0.0000
        0.0000   0.0000   0.0000   0.0000   0.0000

      Spin-down

        1.0000   1.0000   1.0000   1.0000   1.0000   1.0000   1.0000   1.0000
        1.0000   1.0000   1.0000   1.0000   1.0000   1.0000   1.0000   1.0000
        1.0000   1.0000   1.0000   1.0000   1.0000   1.0000   1.0000   1.0000
        1.0000   1.0000   1.0000   1.0000   1.0000   1.0000   1.0000   1.0000
        1.0000   1.0000   1.0000   1.0000   1.0000   1.0000   1.0000   1.0000
        1.0000   1.0000   1.0000   1.0000   1.0000   1.0000   1.0000   1.0000
        1.0000   1.0000   1.0000   1.0000   1.0000   1.0000   1.0000   1.0000
        1.0000   1.0000   1.0000   1.0000   1.0000   1.0000   1.0000   1.0000
        1.0000   1.0000   1.0000   1.0000   1.0000   1.0000   1.0000   1.0000
        1.0000   1.0000   1.0000   1.0000   1.0000   1.0000   1.0000   1.0000
        1.0000   1.0000   1.0000   1.0000   1.0000   1.0000   1.0000   1.0000
        1.0000   1.0000   1.0000   1.0000   1.0000   1.0000   1.0000   1.0000
        1.0000   1.0000   1.0000   1.0000   1.0000   1.0000   1.0000   1.0000
        1.0000   1.0000   1.0000   1.0000   1.0000   1.0000   1.0000   1.0000
        1.0000   1.0000   1.0000   1.0000   1.0000   1.0000   1.0000   1.0000
        1.0000   1.0000   1.0000   1.0000   1.0000   1.0000   1.0000   1.0000
        1.0000   1.0000   1.0000   1.0000   1.0000   1.0000   1.0000   1.0000
        1.0000   1.0000   1.0000   1.0000   1.0000   1.0000   1.0000   1.0000
        1.0000   1.0000   1.0000   1.0000   1.0000   1.0000   1.0000   1.0000
        1.0000   1.0000   1.0000   1.0000   1.0000   1.0000   1.0000   1.0000
        1.0000   1.0000   1.0000   1.0000   1.0000   1.0000   1.0000   1.0000
        1.0000   1.0000   1.0000   1.0000   1.0000   1.0000   1.0000   1.0000
        1.0000   1.0000   1.0000   1.0000   1.0000   1.0000   1.0000   1.0000
        1.0000   1.0000   1.0000   1.0000   1.0000   1.0000   1.0000   1.0000
        1.0000   1.0000   1.0000   0.0000   0.0000   0.0000   0.0000   0.0000
        0.0000   0.0000   0.0000   0.0000   0.0000   0.0000   0.0000   0.0000
        0.0000   0.0000   0.0000   0.0000   0.0000   0.0000   0.0000   0.0000
        0.0000   0.0000   0.0000   0.0000   0.0000   0.0000   0.0000   0.0000
        0.0000   0.0000   0.0000   0.0000   0.0000   0.0000   0.0000   0.0000
        0.0000   0.0000   0.0000   0.0000   0.0000   0.0000   0.0000   0.0000
        0.0000   0.0000   0.0000   0.0000   0.0000

     Estimated max dynamical RAM per process >     122.43 MB

     Estimated total dynamical RAM >       7.65 GB
     Generating pointlists ...
     new r_m :   0.0336 (alat units)  1.1164 (a.u.) for type    1
     new r_m :   0.0329 (alat units)  1.0943 (a.u.) for type    2
     new r_m :   0.0337 (alat units)  1.1190 (a.u.) for type    3
     new r_m :   0.0329 (alat units)  1.0943 (a.u.) for type    4
     new r_m :   0.0337 (alat units)  1.1190 (a.u.) for type    5

     Check: negative core charge=   -0.000006

     Initial potential from superposition of free atoms

     starting charge  390.98597, renormalised to  391.00000

     negative rho (up, down):  5.509E-02 5.821E-02
     Starting wfcs are  392 randomized atomic wfcs
     Checking if some PAW data can be deallocated... 

     total cpu time spent up to now is        7.3 secs

     Self-consistent Calculation

     iteration #  1     ecut=    40.00 Ry     beta= 0.70
     CG style diagonalization
     ethr =  1.00E-02,  avg # of iterations =  3.1

     negative rho (up, down):  3.252E-01 1.268E-02

     total cpu time spent up to now is       42.2 secs

     total energy              =   -1933.13135885 Ry
     Harris-Foulkes estimate   =   -1946.22146686 Ry
     estimated scf accuracy    <      19.85441155 Ry

     total magnetization       =     1.00 Bohr mag/cell
     absolute magnetization    =     2.26 Bohr mag/cell

     iteration #  2     ecut=    40.00 Ry     beta= 0.70
     CG style diagonalization
     ethr =  5.08E-03,  avg # of iterations =  4.0

     negative rho (up, down):  3.591E-01 1.237E-02

     total cpu time spent up to now is       78.1 secs

     total energy              =   -1937.01196826 Ry
     Harris-Foulkes estimate   =   -1943.85518705 Ry
     estimated scf accuracy    <      13.43961129 Ry

     total magnetization       =     1.00 Bohr mag/cell
     absolute magnetization    =     2.82 Bohr mag/cell

     iteration #  3     ecut=    40.00 Ry     beta= 0.70
     CG style diagonalization
     ethr =  3.44E-03,  avg # of iterations =  3.7

     negative rho (up, down):  3.949E-01 1.270E-02

     total cpu time spent up to now is      109.3 secs

     total energy              =   -1939.38196641 Ry
     Harris-Foulkes estimate   =   -1940.55361120 Ry
     estimated scf accuracy    <       2.39945964 Ry

     total magnetization       =     1.00 Bohr mag/cell
     absolute magnetization    =     2.88 Bohr mag/cell

     iteration #  4     ecut=    40.00 Ry     beta= 0.70
     CG style diagonalization
     ethr =  6.14E-04,  avg # of iterations =  3.8

     negative rho (up, down):  4.494E-01 1.260E-02

     total cpu time spent up to now is      141.0 secs

     total energy              =   -1940.01656333 Ry
     Harris-Foulkes estimate   =   -1940.36891995 Ry
     estimated scf accuracy    <       1.07728789 Ry

     total magnetization       =     1.00 Bohr mag/cell
     absolute magnetization    =     2.64 Bohr mag/cell

     iteration #  5     ecut=    40.00 Ry     beta= 0.70
     CG style diagonalization
     c_bands:  1 eigenvalues not converged
     ethr =  2.76E-04,  avg # of iterations =  3.3

     negative rho (up, down):  4.138E-01 4.358E-02

     total cpu time spent up to now is      167.5 secs

     total energy              =   -1940.11196162 Ry
     Harris-Foulkes estimate   =   -1940.19877039 Ry
     estimated scf accuracy    <       0.34284880 Ry

     total magnetization       =     1.00 Bohr mag/cell
     absolute magnetization    =     2.48 Bohr mag/cell

     iteration #  6     ecut=    40.00 Ry     beta= 0.70
     CG style diagonalization
     c_bands:  3 eigenvalues not converged
     c_bands:  2 eigenvalues not converged
     ethr =  8.77E-05,  avg # of iterations =  3.5

     negative rho (up, down):  4.161E-01 4.586E-02

     total cpu time spent up to now is      196.3 secs

     total energy              =   -1940.13256818 Ry
     Harris-Foulkes estimate   =   -1940.18301699 Ry
     estimated scf accuracy    <       0.26181631 Ry

     total magnetization       =     1.00 Bohr mag/cell
     absolute magnetization    =     2.94 Bohr mag/cell

     iteration #  7     ecut=    40.00 Ry     beta= 0.70
     CG style diagonalization
     ethr =  6.70E-05,  avg # of iterations =  3.0

     negative rho (up, down):  4.429E-01 2.978E-02

     total cpu time spent up to now is      219.8 secs

     total energy              =   -1940.16078657 Ry
     Harris-Foulkes estimate   =   -1940.16673253 Ry
     estimated scf accuracy    <       0.02621638 Ry

     total magnetization       =     1.00 Bohr mag/cell
     absolute magnetization    =     2.31 Bohr mag/cell

     iteration #  8     ecut=    40.00 Ry     beta= 0.70
     CG style diagonalization
     c_bands:  1 eigenvalues not converged
     c_bands:  2 eigenvalues not converged
     ethr =  6.70E-06,  avg # of iterations =  6.0

     negative rho (up, down):  4.637E-01 1.924E-02

     total cpu time spent up to now is      269.7 secs

     total energy              =   -1940.16614964 Ry
     Harris-Foulkes estimate   =   -1940.16647773 Ry
     estimated scf accuracy    <       0.00645564 Ry

     total magnetization       =     1.00 Bohr mag/cell
     absolute magnetization    =     2.33 Bohr mag/cell

     iteration #  9     ecut=    40.00 Ry     beta= 0.70
     CG style diagonalization
     c_bands:  5 eigenvalues not converged
     c_bands:  5 eigenvalues not converged
     ethr =  1.65E-06,  avg # of iterations =  6.1

     negative rho (up, down):  4.744E-01 1.469E-02

     total cpu time spent up to now is      320.6 secs

     total energy              =   -1940.16764708 Ry
     Harris-Foulkes estimate   =   -1940.16818032 Ry
     estimated scf accuracy    <       0.00316372 Ry

     total magnetization       =     1.00 Bohr mag/cell
     absolute magnetization    =     2.36 Bohr mag/cell

     iteration # 10     ecut=    40.00 Ry     beta= 0.70
     CG style diagonalization
     c_bands:  4 eigenvalues not converged
     c_bands:  2 eigenvalues not converged
     ethr =  8.09E-07,  avg # of iterations =  3.8

     negative rho (up, down):  4.794E-01 1.361E-02

     total cpu time spent up to now is      352.5 secs

     total energy              =   -1940.16812846 Ry
     Harris-Foulkes estimate   =   -1940.16891927 Ry
     estimated scf accuracy    <       0.00340409 Ry

     total magnetization       =     1.00 Bohr mag/cell
     absolute magnetization    =     2.36 Bohr mag/cell

     iteration # 11     ecut=    40.00 Ry     beta= 0.70
     CG style diagonalization
     c_bands:  2 eigenvalues not converged
     ethr =  8.09E-07,  avg # of iterations =  3.3

     negative rho (up, down):  4.794E-01 1.357E-02

     total cpu time spent up to now is      379.0 secs

     total energy              =   -1940.16858771 Ry
     Harris-Foulkes estimate   =   -1940.16874508 Ry
     estimated scf accuracy    <       0.00052795 Ry

     total magnetization       =     1.00 Bohr mag/cell
     absolute magnetization    =     2.38 Bohr mag/cell

     iteration # 12     ecut=    40.00 Ry     beta= 0.70
     CG style diagonalization
     c_bands:  1 eigenvalues not converged
     ethr =  1.35E-07,  avg # of iterations =  3.5

     negative rho (up, down):  4.825E-01 1.377E-02

     total cpu time spent up to now is      407.4 secs

     total energy              =   -1940.16875077 Ry
     Harris-Foulkes estimate   =   -1940.16873238 Ry
     estimated scf accuracy    <       0.00020797 Ry

     total magnetization       =     1.00 Bohr mag/cell
     absolute magnetization    =     2.38 Bohr mag/cell

     iteration # 13     ecut=    40.00 Ry     beta= 0.70
     CG style diagonalization
     c_bands:  1 eigenvalues not converged
     ethr =  5.32E-08,  avg # of iterations =  3.4

     negative rho (up, down):  4.818E-01 1.379E-02

     total cpu time spent up to now is      435.3 secs

     total energy              =   -1940.16879572 Ry
     Harris-Foulkes estimate   =   -1940.16879786 Ry
     estimated scf accuracy    <       0.00003250 Ry

     total magnetization       =     1.00 Bohr mag/cell
     absolute magnetization    =     2.39 Bohr mag/cell

     iteration # 14     ecut=    40.00 Ry     beta= 0.70
     CG style diagonalization
     ethr =  8.31E-09,  avg # of iterations =  3.5

     negative rho (up, down):  4.809E-01 1.383E-02

     total cpu time spent up to now is      463.9 secs

     total energy              =   -1940.16880166 Ry
     Harris-Foulkes estimate   =   -1940.16880315 Ry
     estimated scf accuracy    <       0.00002079 Ry

     total magnetization       =     1.00 Bohr mag/cell
     absolute magnetization    =     2.40 Bohr mag/cell

     iteration # 15     ecut=    40.00 Ry     beta= 0.70
     CG style diagonalization
     ethr =  5.32E-09,  avg # of iterations =  3.4

     negative rho (up, down):  4.808E-01 1.389E-02

     total cpu time spent up to now is      491.4 secs

     total energy              =   -1940.16880092 Ry
     Harris-Foulkes estimate   =   -1940.16880797 Ry
     estimated scf accuracy    <       0.00001590 Ry

     total magnetization       =     1.00 Bohr mag/cell
     absolute magnetization    =     2.40 Bohr mag/cell

     iteration # 16     ecut=    40.00 Ry     beta= 0.70
     CG style diagonalization
     ethr =  4.07E-09,  avg # of iterations =  3.6

     negative rho (up, down):  4.804E-01 1.386E-02

     total cpu time spent up to now is      521.1 secs

     total energy              =   -1940.16880576 Ry
     Harris-Foulkes estimate   =   -1940.16880784 Ry
     estimated scf accuracy    <       0.00000526 Ry

     total magnetization       =     1.00 Bohr mag/cell
     absolute magnetization    =     2.40 Bohr mag/cell

     iteration # 17     ecut=    40.00 Ry     beta= 0.70
     CG style diagonalization
     ethr =  1.35E-09,  avg # of iterations =  3.4

     negative rho (up, down):  4.804E-01 1.387E-02

     total cpu time spent up to now is      548.5 secs

     total energy              =   -1940.16880693 Ry
     Harris-Foulkes estimate   =   -1940.16880699 Ry
     estimated scf accuracy    <       0.00000043 Ry

     total magnetization       =     1.00 Bohr mag/cell
     absolute magnetization    =     2.40 Bohr mag/cell

     iteration # 18     ecut=    40.00 Ry     beta= 0.70
     CG style diagonalization
     ethr =  1.11E-10,  avg # of iterations =  3.9

     negative rho (up, down):  4.804E-01 1.388E-02

     total cpu time spent up to now is      581.2 secs

     total energy              =   -1940.16880706 Ry
     Harris-Foulkes estimate   =   -1940.16880715 Ry
     estimated scf accuracy    <       0.00000021 Ry

     total magnetization       =     1.00 Bohr mag/cell
     absolute magnetization    =     2.40 Bohr mag/cell

     iteration # 19     ecut=    40.00 Ry     beta= 0.70
     CG style diagonalization
     ethr =  5.33E-11,  avg # of iterations =  3.4

     negative rho (up, down):  4.803E-01 1.388E-02

     total cpu time spent up to now is      609.0 secs

     total energy              =   -1940.16880708 Ry
     Harris-Foulkes estimate   =   -1940.16880711 Ry
     estimated scf accuracy    <       0.00000004 Ry

     total magnetization       =     1.00 Bohr mag/cell
     absolute magnetization    =     2.40 Bohr mag/cell

     iteration # 20     ecut=    40.00 Ry     beta= 0.70
     CG style diagonalization
     ethr =  1.11E-11,  avg # of iterations =  3.6

     negative rho (up, down):  4.803E-01 1.388E-02

     total cpu time spent up to now is      638.5 secs

     total energy              =   -1940.16880710 Ry
     Harris-Foulkes estimate   =   -1940.16880710 Ry
     estimated scf accuracy    <       0.00000002 Ry

     total magnetization       =     1.00 Bohr mag/cell
     absolute magnetization    =     2.40 Bohr mag/cell

     iteration # 21     ecut=    40.00 Ry     beta= 0.70
     CG style diagonalization
     ethr =  6.34E-12,  avg # of iterations =  3.3

     negative rho (up, down):  4.803E-01 1.388E-02

     total cpu time spent up to now is      664.8 secs

     total energy              =   -1940.16880709 Ry
     Harris-Foulkes estimate   =   -1940.16880710 Ry
     estimated scf accuracy    <       0.00000001 Ry

     total magnetization       =     1.00 Bohr mag/cell
     absolute magnetization    =     2.40 Bohr mag/cell

     iteration # 22     ecut=    40.00 Ry     beta= 0.70
     CG style diagonalization
     ethr =  3.19E-12,  avg # of iterations =  3.2

     negative rho (up, down):  4.803E-01 1.388E-02

     total cpu time spent up to now is      690.4 secs

     total energy              =   -1940.16880710 Ry
     Harris-Foulkes estimate   =   -1940.16880710 Ry
     estimated scf accuracy    <          2.3E-09 Ry

     total magnetization       =     1.00 Bohr mag/cell
     absolute magnetization    =     2.40 Bohr mag/cell

     iteration # 23     ecut=    40.00 Ry     beta= 0.70
     CG style diagonalization
     ethr =  5.80E-13,  avg # of iterations =  3.9

     negative rho (up, down):  4.803E-01 1.388E-02

     total cpu time spent up to now is      723.3 secs

     total energy              =   -1940.16880710 Ry
     Harris-Foulkes estimate   =   -1940.16880710 Ry
     estimated scf accuracy    <          7.0E-10 Ry

     total magnetization       =     1.00 Bohr mag/cell
     absolute magnetization    =     2.40 Bohr mag/cell

     iteration # 24     ecut=    40.00 Ry     beta= 0.70
     CG style diagonalization
     ethr =  1.80E-13,  avg # of iterations =  3.7

     negative rho (up, down):  4.803E-01 1.388E-02

     total cpu time spent up to now is      754.0 secs

     total energy              =   -1940.16880710 Ry
     Harris-Foulkes estimate   =   -1940.16880710 Ry
     estimated scf accuracy    <          2.4E-10 Ry

     total magnetization       =     1.00 Bohr mag/cell
     absolute magnetization    =     2.40 Bohr mag/cell

     iteration # 25     ecut=    40.00 Ry     beta= 0.70
     CG style diagonalization
     ethr =  1.00E-13,  avg # of iterations =  3.6

     negative rho (up, down):  4.803E-01 1.388E-02

     total cpu time spent up to now is      783.6 secs

     total energy              =   -1940.16880710 Ry
     Harris-Foulkes estimate   =   -1940.16880710 Ry
     estimated scf accuracy    <          3.7E-11 Ry

     total magnetization       =     1.00 Bohr mag/cell
     absolute magnetization    =     2.40 Bohr mag/cell

     iteration # 26     ecut=    40.00 Ry     beta= 0.70
     CG style diagonalization
     ethr =  1.00E-13,  avg # of iterations =  3.2

     negative rho (up, down):  4.803E-01 1.388E-02

     total cpu time spent up to now is      809.1 secs

     total energy              =   -1940.16880711 Ry
     Harris-Foulkes estimate   =   -1940.16880710 Ry
     estimated scf accuracy    <          1.3E-11 Ry

     total magnetization       =     1.00 Bohr mag/cell
     absolute magnetization    =     2.40 Bohr mag/cell

     iteration # 27     ecut=    40.00 Ry     beta= 0.70
     CG style diagonalization
     ethr =  1.00E-13,  avg # of iterations =  3.2

     negative rho (up, down):  4.803E-01 1.388E-02

     total cpu time spent up to now is      834.3 secs

     total energy              =   -1940.16880711 Ry
     Harris-Foulkes estimate   =   -1940.16880711 Ry
     estimated scf accuracy    <          9.0E-12 Ry

     total magnetization       =     1.00 Bohr mag/cell
     absolute magnetization    =     2.40 Bohr mag/cell

     iteration # 28     ecut=    40.00 Ry     beta= 0.70
     CG style diagonalization
     ethr =  1.00E-13,  avg # of iterations =  3.1

     negative rho (up, down):  4.803E-01 1.388E-02

     total cpu time spent up to now is      858.4 secs

     total energy              =   -1940.16880710 Ry
     Harris-Foulkes estimate   =   -1940.16880711 Ry
     estimated scf accuracy    <          1.1E-12 Ry

     total magnetization       =     1.00 Bohr mag/cell
     absolute magnetization    =     2.40 Bohr mag/cell

     iteration # 29     ecut=    40.00 Ry     beta= 0.70
     CG style diagonalization
     ethr =  1.00E-13,  avg # of iterations =  3.2

     negative rho (up, down):  4.803E-01 1.388E-02

     total cpu time spent up to now is      883.8 secs

     total energy              =   -1940.16880710 Ry
     Harris-Foulkes estimate   =   -1940.16880710 Ry
     estimated scf accuracy    <          1.4E-12 Ry

     total magnetization       =     1.00 Bohr mag/cell
     absolute magnetization    =     2.40 Bohr mag/cell

     iteration # 30     ecut=    40.00 Ry     beta= 0.70
     CG style diagonalization
     ethr =  1.00E-13,  avg # of iterations =  3.1

     negative rho (up, down):  4.803E-01 1.388E-02
 
     Magnetic moment per site:
     atom:    1    charge:    0.8508    magn:    0.0001    constr:    0.0000
     atom:    2    charge:    0.8461    magn:    0.0011    constr:    0.0000
     atom:    3    charge:    0.8471    magn:    0.0020    constr:    0.0000
     atom:    4    charge:    0.8489    magn:   -0.0004    constr:    0.0000
     atom:    5    charge:    0.8517    magn:    0.0010    constr:    0.0000
     atom:    6    charge:    0.8500    magn:   -0.0001    constr:    0.0000
     atom:    7    charge:    0.8509    magn:    0.0005    constr:    0.0000
     atom:    8    charge:    0.8498    magn:    0.0008    constr:    0.0000
     atom:    9    charge:    0.8508    magn:    0.0005    constr:    0.0000
     atom:   10    charge:    0.8436    magn:    0.0098    constr:    0.0000
     atom:   11    charge:    0.8473    magn:    0.0014    constr:    0.0000
     atom:   12    charge:    0.8527    magn:    0.0018    constr:    0.0000
     atom:   13    charge:    0.8516    magn:   -0.0004    constr:    0.0000
     atom:   14    charge:    0.8500    magn:   -0.0001    constr:    0.0000
     atom:   15    charge:    0.8498    magn:    0.0003    constr:    0.0000
     atom:   16    charge:    0.8553    magn:    0.0058    constr:    0.0000
     atom:   17    charge:    0.8614    magn:    0.0175    constr:    0.0000
     atom:   18    charge:    0.8501    magn:    0.0260    constr:    0.0000
     atom:   19    charge:    0.8604    magn:    0.0097    constr:    0.0000
     atom:   20    charge:    0.8527    magn:    0.0018    constr:    0.0000
     atom:   21    charge:    0.8517    magn:    0.0010    constr:    0.0000
     atom:   22    charge:    0.8467    magn:   -0.0000    constr:    0.0000
     atom:   23    charge:    0.8437    magn:    0.0013    constr:    0.0000
     atom:   24    charge:    0.8411    magn:    0.0104    constr:    0.0000
     atom:   25    charge:    1.6344    magn:    0.1386    constr:    0.0000
     atom:   26    charge:    0.8501    magn:    0.0260    constr:    0.0000
     atom:   27    charge:    0.8473    magn:    0.0014    constr:    0.0000
     atom:   28    charge:    0.8489    magn:   -0.0004    constr:    0.0000
     atom:   29    charge:    0.8470    magn:    0.0009    constr:    0.0000
     atom:   30    charge:    0.8474    magn:    0.0002    constr:    0.0000
     atom:   31    charge:    0.8472    magn:    0.0025    constr:    0.0000
     atom:   32    charge:    0.8411    magn:    0.0104    constr:    0.0000
     atom:   33    charge:    0.8614    magn:    0.0175    constr:    0.0000
     atom:   34    charge:    0.8436    magn:    0.0098    constr:    0.0000
     atom:   35    charge:    0.8471    magn:    0.0020    constr:    0.0000
     atom:   36    charge:    0.8460    magn:    0.0003    constr:    0.0000
     atom:   37    charge:    0.8455    magn:   -0.0004    constr:    0.0000
     atom:   38    charge:    0.8474    magn:    0.0002    constr:    0.0000
     atom:   39    charge:    0.8437    magn:    0.0013    constr:    0.0000
     atom:   40    charge:    0.8553    magn:    0.0058    constr:    0.0000
     atom:   41    charge:    0.8508    magn:    0.0005    constr:    0.0000
     atom:   42    charge:    0.8461    magn:    0.0011    constr:    0.0000
     atom:   43    charge:    0.8460    magn:    0.0009    constr:    0.0000
     atom:   44    charge:    0.8460    magn:    0.0003    constr:    0.0000
     atom:   45    charge:    0.8470    magn:    0.0009    constr:    0.0000
     atom:   46    charge:    0.8467    magn:   -0.0000    constr:    0.0000
     atom:   47    charge:    0.8498    magn:    0.0003    constr:    0.0000
     atom:   48    charge:    0.8498    magn:    0.0008    constr:    0.0000
     atom:   49    charge:    0.8508    magn:    0.0001    constr:    0.0000
     atom:   50    charge:    2.7078    magn:   -0.0008    constr:    0.0000
     atom:   51    charge:    2.7058    magn:   -0.0007    constr:    0.0000
     atom:   52    charge:    2.6965    magn:   -0.0049    constr:    0.0000
     atom:   53    charge:    2.7050    magn:   -0.0063    constr:    0.0000
     atom:   54    charge:    2.7073    magn:   -0.0002    constr:    0.0000
     atom:   55    charge:    2.7002    magn:    0.0001    constr:    0.0000
     atom:   56    charge:    2.7026    magn:    0.0001    constr:    0.0000
     atom:   57    charge:    2.7028    magn:    0.0023    constr:    0.0000
     atom:   58    charge:    2.7037    magn:   -0.0008    constr:    0.0000
     atom:   59    charge:    2.6926    magn:   -0.0262    constr:    0.0000
     atom:   60    charge:    2.6963    magn:    0.0089    constr:    0.0000
     atom:   61    charge:    2.7042    magn:   -0.0108    constr:    0.0000
     atom:   62    charge:    2.6995    magn:   -0.0060    constr:    0.0000
     atom:   63    charge:    2.7002    magn:    0.0001    constr:    0.0000
     atom:   64    charge:    2.7080    magn:   -0.0007    constr:    0.0000
     atom:   65    charge:    2.7072    magn:   -0.0057    constr:    0.0000
     atom:   66    charge:    2.7054    magn:    0.0208    constr:    0.0000
     atom:   67    charge:    1.7214    magn:    0.0781    constr:    0.0000
     atom:   68    charge:    2.6899    magn:   -0.0758    constr:    0.0000
     atom:   69    charge:    2.7042    magn:   -0.0108    constr:    0.0000
     atom:   70    charge:    2.7073    magn:   -0.0002    constr:    0.0000
     atom:   71    charge:    2.7065    magn:   -0.0004    constr:    0.0000
     atom:   72    charge:    2.7019    magn:    0.0001    constr:    0.0000
     atom:   73    charge:    2.6962    magn:   -0.0138    constr:    0.0000
     atom:   74    charge:    2.6637    magn:   -0.1157    constr:    0.0000
     atom:   75    charge:    1.7214    magn:    0.0781    constr:    0.0000
     atom:   76    charge:    2.6963    magn:    0.0089    constr:    0.0000
     atom:   77    charge:    2.7050    magn:   -0.0063    constr:    0.0000
     atom:   78    charge:    2.7057    magn:   -0.0003    constr:    0.0000
     atom:   79    charge:    2.7016    magn:   -0.0004    constr:    0.0000
     atom:   80    charge:    2.6974    magn:   -0.0082    constr:    0.0000
     atom:   81    charge:    2.6962    magn:   -0.0138    constr:    0.0000
     atom:   82    charge:    2.7054    magn:    0.0208    constr:    0.0000
     atom:   83    charge:    2.6926    magn:   -0.0262    constr:    0.0000
     atom:   84    charge:    2.6965    magn:   -0.0049    constr:    0.0000
     atom:   85    charge:    2.7031    magn:   -0.0011    constr:    0.0000
     atom:   86    charge:    2.7026    magn:   -0.0003    constr:    0.0000
     atom:   87    charge:    2.7016    magn:   -0.0004    constr:    0.0000
     atom:   88    charge:    2.7019    magn:    0.0001    constr:    0.0000
     atom:   89    charge:    2.7072    magn:   -0.0057    constr:    0.0000
     atom:   90    charge:    2.7037    magn:   -0.0008    constr:    0.0000
     atom:   91    charge:    2.7058    magn:   -0.0007    constr:    0.0000
     atom:   92    charge:    2.7091    magn:   -0.0010    constr:    0.0000
     atom:   93    charge:    2.7031    magn:   -0.0011    constr:    0.0000
     atom:   94    charge:    2.7057    magn:   -0.0003    constr:    0.0000
     atom:   95    charge:    2.7065    magn:   -0.0004    constr:    0.0000
     atom:   96    charge:    2.7080    magn:   -0.0007    constr:    0.0000
     atom:   97    charge:    2.7028    magn:    0.0023    constr:    0.0000
     atom:   98    charge:    2.7078    magn:   -0.0008    constr:    0.0000

     total cpu time spent up to now is      908.4 secs

     End of self-consistent calculation

 ------ SPIN UP ------------


          k = 0.0000 0.0000 0.0000 ( 77468 PWs)   bands (ev):

   -21.7768 -21.5580 -21.4014 -21.3914 -21.3776 -21.3038 -21.2535 -20.8386
   -20.6620 -20.6424 -20.6288 -20.5524 -20.5397 -20.4226 -20.2923 -20.2914
   -20.2623 -20.1145 -20.1046 -19.5623 -19.4160 -19.4051 -19.3996 -19.3947
   -19.3850 -19.3768 -19.3601 -19.3138 -19.3079 -19.1663 -19.1623 -19.0356
   -18.9741 -18.9735 -18.9314 -18.7714 -18.7601 -18.5480 -18.5439 -18.5239
   -18.5114 -18.4703 -18.4195 -18.4004 -18.3687 -18.3463 -18.3288 -16.7252
   -14.8805 -13.1226 -12.7794 -12.7729 -12.7527 -12.7258 -12.7200 -12.6572
   -12.5685 -12.5362 -12.5261 -12.4808 -12.4103 -12.1539 -12.0707 -12.0569
   -12.0322 -11.9827 -11.9419 -11.5578 -11.4154 -11.4081 -11.3959 -11.3929
   -11.3751 -11.3647 -11.3630 -11.3124 -11.3004 -11.0924 -11.0476 -10.8741
   -10.7277 -10.7153 -10.6753 -10.6538 -10.5064 -10.0676 -10.0312 -10.0049
    -9.9362  -9.8812  -9.8203  -9.3971  -9.3233  -9.3140  -9.3136  -9.2937
    -9.2821  -9.2273  -9.0525  -8.9391  -8.9139  -8.9137  -8.9063  -8.8996
    -8.8909  -8.8812  -8.8793  -8.8660  -8.8362  -8.8311  -8.8269  -8.8239
    -8.8130  -8.7999  -8.7941  -8.7526  -8.7277  -8.6722  -8.6597  -8.6445
    -8.4770  -8.4571  -8.2211  -8.1970  -8.1960  -8.0972  -8.0768  -7.8996
    -7.8637  -7.8314  -7.8145  -7.8074  -7.7290  -7.7204  -7.5578  -7.5069
    -7.5041  -7.4792  -7.4583  -7.4460  -7.4321  -7.4037  -7.4015  -7.3421
    -7.3405  -7.3378  -7.3084  -7.2778  -7.2213  -7.2162  -7.2087  -7.0331
    -7.0310  -7.0021  -6.9003  -6.8238  -6.6592  -6.5466  -6.2133  -6.1957
    -6.1853  -6.1550  -6.0824  -6.0751  -6.0733  -6.0659  -6.0620  -6.0563
    -6.0464  -6.0338  -5.9963  -5.9817  -5.8693  -5.8228  -5.8087  -5.7093
    -5.5234  -5.4539  -5.4477  -5.4202  -5.3247  -5.2572  -5.1078  -5.0495
    -4.7868  -4.7846  -4.7594  -4.7543  -4.6737  -4.6732  -4.5655  -4.5197
    -4.5028  -4.4971  -4.2569  -3.4554  -0.0190   0.1766   0.6790   0.6808
     0.7075   0.7086   0.7202   0.7203   0.7742   0.7915   0.8044   0.8047
     0.8097   0.8278   0.8297   0.8513   0.8533   0.8980   0.9151   0.9227
     0.9253   1.1169   1.1999   1.2121   1.2321   1.2427   1.2916   1.3161
     1.3216   1.3258   1.3422   1.3566   1.3970   1.4356   1.4384   1.4412
     1.4524   1.4609   1.4874   1.8841   2.0873   2.0938   2.0943   2.1072
     2.1127   2.1254   2.1388   2.2090   2.2734

 ------ SPIN DOWN ----------


          k = 0.0000 0.0000 0.0000 ( 77468 PWs)   bands (ev):

   -21.7918 -21.5921 -21.4021 -21.3931 -21.3805 -21.3039 -21.2668 -20.8612
   -20.6676 -20.6529 -20.6234 -20.5527 -20.5433 -20.4299 -20.2947 -20.2896
   -20.2796 -20.1148 -20.1056 -19.5805 -19.4226 -19.4093 -19.4027 -19.3981
   -19.3875 -19.3765 -19.3699 -19.3267 -19.3015 -19.1732 -19.1703 -19.0402
   -18.9766 -18.9745 -18.9488 -18.7664 -18.7662 -18.5555 -18.5476 -18.5310
   -18.5210 -18.4750 -18.4288 -18.4059 -18.3710 -18.3508 -18.3439 -16.5621
   -14.6391 -13.0368 -12.7769 -12.7677 -12.7495 -12.7223 -12.7179 -12.6478
   -12.5665 -12.5297 -12.5233 -12.4611 -12.3983 -12.1460 -12.0688 -12.0556
   -12.0267 -11.9729 -11.9337 -11.5391 -11.4130 -11.4032 -11.3948 -11.3879
   -11.3743 -11.3636 -11.3611 -11.3068 -11.2894 -11.0671 -11.0238 -10.8619
   -10.7257 -10.7122 -10.6725 -10.6356 -10.4840 -10.0637 -10.0246 -10.0045
    -9.9271  -9.8715  -9.8073  -9.3955  -9.3177  -9.3138  -9.3037  -9.2917
    -9.2805  -9.2238  -9.0502  -8.9450  -8.9155  -8.9115  -8.9084  -8.8963
    -8.8917  -8.8882  -8.8795  -8.8630  -8.8342  -8.8309  -8.8249  -8.8214
    -8.8166  -8.7960  -8.7950  -8.7371  -8.7206  -8.6422  -8.6277  -8.6260
    -8.4633  -8.4376  -8.2222  -8.1975  -8.1958  -8.0742  -8.0703  -7.9229
    -7.8532  -7.8372  -7.8259  -7.7886  -7.7131  -7.6900  -7.5524  -7.5123
    -7.5030  -7.4768  -7.4572  -7.4512  -7.4448  -7.4046  -7.4027  -7.3432
    -7.3393  -7.3284  -7.3220  -7.2780  -7.2132  -7.1578  -7.1561  -7.0329
    -7.0291  -7.0022  -6.8608  -6.7984  -6.6431  -6.5220  -6.2379  -6.1938
    -6.1887  -6.1574  -6.0909  -6.0801  -6.0697  -6.0668  -6.0577  -6.0508
    -6.0428  -6.0407  -6.0138  -5.9589  -5.8152  -5.8088  -5.7863  -5.6865
    -5.5284  -5.4496  -5.4492  -5.4348  -5.2581  -5.2159  -5.0629  -4.9800
    -4.8016  -4.7891  -4.7778  -4.7650  -4.6770  -4.6574  -4.5697  -4.5188
    -4.5118  -4.5060  -4.1837  -2.8883   0.1834   0.4906   0.6992   0.7134
     0.7137   0.7325   0.7476   0.7482   0.7910   0.8031   0.8052   0.8074
     0.8111   0.8352   0.8541   0.8617   0.8860   0.9026   0.9468   0.9542
     1.0490   1.1656   1.2219   1.2575   1.2759   1.3157   1.3207   1.3256
     1.3372   1.3448   1.3494   1.3741   1.4217   1.4333   1.4359   1.4388
     1.4498   1.4591   1.4924   1.8870   2.0954   2.1000   2.1111   2.1213
     2.1441   2.1561   2.1566   2.2133   2.3085

     highest occupied, lowest unoccupied level (ev):    -4.1837   -4.2569

!    total energy              =   -1940.16880710 Ry
     Harris-Foulkes estimate   =   -1940.16880710 Ry
     estimated scf accuracy    <          3.3E-13 Ry

     total all-electron energy =     -7769.993284 Ry

     The total energy is the sum of the following terms:

     one-electron contribution =  -10644.54411522 Ry
     hartree contribution      =    5407.86037384 Ry
     xc contribution           =    -430.66113836 Ry
     ewald contribution        =    4370.62448855 Ry
     DFT-D3 Dispersion         =      -0.27013821 Ry
     one-center paw contrib.   =    -643.17827770 Ry

     total magnetization       =     1.00 Bohr mag/cell
     absolute magnetization    =     2.40 Bohr mag/cell

     convergence has been achieved in  30 iterations

     negative rho (up, down):  4.803E-01 1.388E-02

     Forces acting on atoms (cartesian axes, Ry/au):

     atom    1 type  1   force =    -0.00000015    0.00000374    0.00000000
     atom    2 type  1   force =     0.00000239   -0.00000114    0.00000000
     atom    3 type  1   force =     0.00000897    0.00000616    0.00000000
     atom    4 type  1   force =     0.00000309    0.00000549    0.00000000
     atom    5 type  1   force =     0.00000110   -0.00000710    0.00000000
     atom    6 type  1   force =    -0.00000170   -0.00000997    0.00000000
     atom    7 type  1   force =     0.00000224   -0.00000153    0.00000000
     atom    8 type  1   force =     0.00000050    0.00000756    0.00000000
     atom    9 type  1   force =    -0.00000078    0.00000138    0.00000000
     atom   10 type  1   force =    -0.00000495   -0.00000204    0.00000000
     atom   11 type  1   force =     0.00000270    0.00000978    0.00000000
     atom   12 type  1   force =     0.00000363    0.00000161    0.00000000
     atom   13 type  1   force =     0.00000126   -0.00000091    0.00000000
     atom   14 type  1   force =     0.00000762    0.00000641    0.00000000
     atom   15 type  1   force =     0.00001158    0.00001547    0.00000000
     atom   16 type  1   force =     0.00000855    0.00001209    0.00000000
     atom   17 type  1   force =    -0.00000475   -0.00000149    0.00000000
     atom   18 type  1   force =    -0.00000287   -0.00000063    0.00000000
     atom   19 type  1   force =    -0.00000313    0.00000182    0.00000000
     atom   20 type  1   force =     0.00000024   -0.00000420    0.00000000
     atom   21 type  1   force =     0.00000673    0.00000257    0.00000000
     atom   22 type  1   force =     0.00000275    0.00000772    0.00000000
     atom   23 type  1   force =     0.00000767    0.00001315    0.00000000
     atom   24 type  1   force =     0.00000628    0.00001085    0.00000000
     atom   25 type  4   force =    -0.00000744    0.00000441    0.00000000
     atom   26 type  1   force =    -0.00000085    0.00000284    0.00000000
     atom   27 type  1   force =    -0.00000693   -0.00000738    0.00000000
     atom   28 type  1   force =    -0.00000324   -0.00000547    0.00000000
     atom   29 type  1   force =    -0.00000304   -0.00000104    0.00000000
     atom   30 type  1   force =    -0.00000245    0.00000244    0.00000000
     atom   31 type  1   force =     0.00000349   -0.00000198    0.00000000
     atom   32 type  1   force =    -0.00000628   -0.00001072    0.00000000
     atom   33 type  1   force =    -0.00000096    0.00000488    0.00000000
     atom   34 type  1   force =    -0.00000060    0.00000516    0.00000000
     atom   35 type  1   force =    -0.00000087   -0.00001093    0.00000000
     atom   36 type  1   force =    -0.00000358   -0.00000586    0.00000000
     atom   37 type  1   force =    -0.00000475    0.00000282    0.00000000
     atom   38 type  1   force =    -0.00000324    0.00000096    0.00000000
     atom   39 type  1   force =    -0.00000759   -0.00001313    0.00000000
     atom   40 type  1   force =    -0.00000619   -0.00001336    0.00000000
     atom   41 type  1   force =    -0.00000142   -0.00000015    0.00000000
     atom   42 type  1   force =     0.00000238   -0.00000155    0.00000000
     atom   43 type  1   force =    -0.00000057    0.00000046    0.00000000
     atom   44 type  1   force =     0.00000331    0.00000626    0.00000000
     atom   45 type  1   force =    -0.00000049    0.00000328    0.00000000
     atom   46 type  1   force =    -0.00000505   -0.00000612    0.00000000
     atom   47 type  1   force =    -0.00000755   -0.00001760    0.00000000
     atom   48 type  1   force =    -0.00000634   -0.00000431    0.00000000
     atom   49 type  1   force =    -0.00000328   -0.00000186    0.00000000
     atom   50 type  2   force =     0.00000044   -0.00000624    0.00000000
     atom   51 type  2   force =     0.00000269   -0.00000642    0.00000000
     atom   52 type  2   force =     0.00000667   -0.00000040    0.00000000
     atom   53 type  2   force =     0.00000668   -0.00000055    0.00000000
     atom   54 type  2   force =    -0.00000091    0.00000073    0.00000000
     atom   55 type  2   force =    -0.00000449    0.00000068    0.00000000
     atom   56 type  2   force =    -0.00000004    0.00000013    0.00000000
     atom   57 type  2   force =    -0.00000248    0.00000044    0.00000000
     atom   58 type  2   force =    -0.00000186   -0.00000065    0.00000000
     atom   59 type  2   force =     0.00000279    0.00000503    0.00000000
     atom   60 type  2   force =     0.00000727    0.00000314    0.00000000
     atom   61 type  2   force =     0.00000970    0.00000094    0.00000000
     atom   62 type  2   force =    -0.00000387    0.00000228    0.00000000
     atom   63 type  2   force =    -0.00000283    0.00000366    0.00000000
     atom   64 type  2   force =    -0.00000298    0.00000347    0.00000000
     atom   65 type  2   force =    -0.00000252    0.00000283    0.00000000
     atom   66 type  2   force =    -0.00000337    0.00000438    0.00000000
     atom   67 type  3   force =    -0.00000402    0.00000328    0.00000000
     atom   68 type  2   force =     0.00001052   -0.00000607    0.00000000
     atom   69 type  2   force =     0.00000400   -0.00000878    0.00000000
     atom   70 type  2   force =    -0.00000108    0.00000050    0.00000000
     atom   71 type  2   force =    -0.00000334    0.00000463    0.00000000
     atom   72 type  2   force =    -0.00000076    0.00000630    0.00000000
     atom   73 type  2   force =    -0.00000313    0.00000303    0.00000000
     atom   74 type  2   force =    -0.00000571    0.00000327    0.00000000
     atom   75 type  5   force =    -0.00000497    0.00000172    0.00000000
     atom   76 type  2   force =     0.00000087   -0.00000789    0.00000000
     atom   77 type  2   force =     0.00000371   -0.00000540    0.00000000
     atom   78 type  2   force =     0.00000304    0.00000005    0.00000000
     atom   79 type  2   force =     0.00000179   -0.00000011    0.00000000
     atom   80 type  2   force =    -0.00000081    0.00000045    0.00000000
     atom   81 type  2   force =    -0.00000417    0.00000109    0.00000000
     atom   82 type  2   force =    -0.00000565    0.00000060    0.00000000
     atom   83 type  2   force =    -0.00000313   -0.00000492    0.00000000
     atom   84 type  2   force =     0.00000362   -0.00000546    0.00000000
     atom   85 type  2   force =     0.00000635   -0.00000049    0.00000000
     atom   86 type  2   force =     0.00000552   -0.00000326    0.00000000
     atom   87 type  2   force =     0.00000083   -0.00000153    0.00000000
     atom   88 type  2   force =    -0.00000593   -0.00000251    0.00000000
     atom   89 type  2   force =    -0.00000369    0.00000053    0.00000000
     atom   90 type  2   force =    -0.00000044    0.00000193    0.00000000
     atom   91 type  2   force =     0.00000680    0.00000104    0.00000000
     atom   92 type  2   force =     0.00000451   -0.00000256    0.00000000
     atom   93 type  2   force =     0.00000364   -0.00000533    0.00000000
     atom   94 type  2   force =     0.00000148   -0.00000270    0.00000000
     atom   95 type  2   force =    -0.00000583    0.00000061    0.00000000
     atom   96 type  2   force =    -0.00000456    0.00000081    0.00000000
     atom   97 type  2   force =    -0.00000153    0.00000196    0.00000000
     atom   98 type  2   force =     0.00000573    0.00000289    0.00000000

     Total force =     0.000071     Total SCF correction =     0.000001


     Computing stress (Cartesian axis) and pressure


     negative rho (up, down):  4.803E-01 1.388E-02
          total   stress  (Ry/bohr**3)                   (kbar)     P=   -0.16
   0.00000001  -0.00000000   0.00000000          0.00     -0.00      0.00
  -0.00000000   0.00000001   0.00000000         -0.00      0.00      0.00
   0.00000000   0.00000000  -0.00000334          0.00      0.00     -0.49


     BFGS Geometry Optimization

     number of scf cycles    =   1
     number of bfgs steps    =   0

     enthalpy new            =   -1940.1688071036 Ry

     new trust radius        =       0.0000193191 bohr
     new conv_thr            =            1.0E-12 Ry

     new unit-cell volume =  36232.16209 a.u.^3 (  5369.05241 Ang^3 )
     density =      0.36309 g/cm^3

CELL_PARAMETERS (alat= 33.23461096)
   1.001046930   0.000089267   0.000000000
  -0.500446157   0.866976705   0.000000000
   0.000000000   0.000000000   1.137203616

ATOMIC_POSITIONS (crystal)
B        0.047298060   0.094709310   0.500000000
B        0.047350522   0.237764009   0.500000000
B        0.047289420   0.380856315   0.500000000
B        0.047184094   0.523772176   0.500000000
B        0.047611197   0.666640163   0.500000000
B        0.047886029   0.809631813   0.500000000
B        0.047697661   0.952302333   0.500000000
B        0.189934024   0.094371777   0.500000000
B        0.189271289   0.236562198   0.500000000
B        0.190116746   0.380812467   0.500000000
B        0.189506881   0.523686527   0.500000000
B        0.189620558   0.666778101   0.500000000
B        0.190335184   0.809664810   0.500000000
B        0.190368183   0.952113971   0.500000000
B        0.333207195   0.094357588   0.500000000
B        0.332752329   0.236201115   0.500000000
B        0.331745204   0.377571408   0.500000000
B        0.332422194   0.525064513   0.500000000
B        0.331884152   0.668115851   0.500000000
B        0.333221897   0.810379440   0.500000000
B        0.333359839   0.952388804   0.500000000
B        0.476264105   0.095147715   0.500000000
B        0.476139755   0.237767926   0.500000000
B        0.475162475   0.379901458   0.500000000
C2       0.477261749   0.522738253   0.500000000
B        0.474935485   0.667577803   0.500000000
B        0.476313478   0.810493115   0.500000000
B        0.476227826   0.952815906   0.500000000
B        0.618998628   0.095271343   0.500000000
B        0.619016704   0.237966459   0.500000000
B        0.619108238   0.380891765   0.500000000
B        0.620098544   0.524837530   0.500000000
B        0.622428594   0.668254796   0.500000000
B        0.619187534   0.809883248   0.500000000
B        0.619143683   0.952710576   0.500000000
B        0.761871806   0.095292874   0.500000000
B        0.761847879   0.238152119   0.500000000
B        0.762033545   0.380983299   0.500000000
B        0.762232073   0.523860246   0.500000000
B        0.763798887   0.667247674   0.500000000
B        0.763437807   0.810728710   0.500000000
B        0.762235993   0.952649473   0.500000000
B        0.904837021   0.095162978   0.500000000
B        0.904707122   0.238128194   0.500000000
B        0.904728658   0.381001374   0.500000000
B        0.904852292   0.523735898   0.500000000
B        0.905642416   0.666792807   0.500000000
B        0.905628226   0.810065976   0.500000000
B        0.905290691   0.952701938   0.500000000
N        0.094973955   0.047226490   0.500000000
N        0.094462273   0.189644764   0.500000000
N        0.094875696   0.333125081   0.500000000
N        0.094565534   0.476049140   0.500000000
N        0.094701408   0.618923997   0.500000000
N        0.095263294   0.761904314   0.500000000
N        0.095296329   0.904703673   0.500000000
N        0.237945830   0.047108903   0.500000000
N        0.237324570   0.189269687   0.500000000
N        0.236650293   0.331594444   0.500000000
N        0.237056744   0.476243151   0.500000000
N        0.236757635   0.619261288   0.500000000
N        0.237861936   0.762138069   0.500000000
N        0.238095688   0.904736709   0.500000000
N        0.381098217   0.047367409   0.500000000
N        0.380947115   0.189352048   0.500000000
N        0.380059969   0.330429007   0.500000000
C1       0.383121878   0.476271813   0.500000000
N        0.378852375   0.621147623   0.500000000
N        0.380738716   0.763242369   0.500000000
N        0.381076007   0.905298596   0.500000000
N        0.523921168   0.047823382   0.500000000
N        0.523900001   0.190452155   0.500000000
N        0.523739144   0.333453678   0.500000000
N        0.523300881   0.476699118   0.500000000
C3       0.523728183   0.616878119   0.500000000
N        0.523756846   0.762943252   0.500000000
N        0.523950861   0.905434467   0.500000000
N        0.666704237   0.047832180   0.500000000
N        0.666641924   0.190518051   0.500000000
N        0.666611064   0.333388937   0.500000000
N        0.666546321   0.476260856   0.500000000
N        0.669570992   0.619940031   0.500000000
N        0.668405557   0.763349707   0.500000000
N        0.666874917   0.905124303   0.500000000
N        0.809607600   0.047755742   0.500000000
N        0.809467789   0.190532203   0.500000000
N        0.809481944   0.333358072   0.500000000
N        0.809547844   0.476099998   0.500000000
N        0.810647950   0.619052881   0.500000000
N        0.810730316   0.762675432   0.500000000
N        0.810355237   0.905537729   0.500000000
N        0.952403996   0.047596004   0.500000000
N        0.952244252   0.190392394   0.500000000
N        0.952167816   0.333295758   0.500000000
N        0.952176616   0.476078832   0.500000000
N        0.952632591   0.618901782   0.500000000
N        0.952891099   0.762054170   0.500000000
N        0.952773514   0.905026049   0.500000000



     Writing output data file C2Cn.save/
     NEW-OLD atomic charge density approx. for the potential
     NEW k-points:
   0.0000000   0.0000000   0.0000000   1.0000000
   0.0000000   0.0000000   0.0000000   1.0000000

     Check: negative core charge=   -0.000006

     negative rho (up, down):  4.803E-01 7.129E-03
     extrapolated charge  391.00026, renormalised to  391.00000

     total cpu time spent up to now is      927.4 secs

     Self-consistent Calculation

     iteration #  1     ecut=    40.00 Ry     beta= 0.70
     CG style diagonalization
     ethr =  1.00E-06,  avg # of iterations =  2.0

     Threshold (ethr) on eigenvalues was too large:
     Diagonalizing with lowered threshold

     CG style diagonalization
     ethr =  4.14E-12,  avg # of iterations =  8.5

     negative rho (up, down):  4.803E-01 1.280E-02

     total cpu time spent up to now is     1032.3 secs

     total energy              =   -1940.16880921 Ry
     Harris-Foulkes estimate   =   -1940.16207718 Ry
     estimated scf accuracy    <       0.00000002 Ry

     total magnetization       =     1.00 Bohr mag/cell
     absolute magnetization    =     2.40 Bohr mag/cell

     iteration #  2     ecut=    40.00 Ry     beta= 0.70
     CG style diagonalization
     ethr =  4.52E-12,  avg # of iterations =  3.8

     negative rho (up, down):  4.803E-01 1.337E-02

     total cpu time spent up to now is     1064.5 secs

     total energy              =   -1940.16880828 Ry
     Harris-Foulkes estimate   =   -1940.16880923 Ry
     estimated scf accuracy    <          6.2E-09 Ry

     total magnetization       =     1.00 Bohr mag/cell
     absolute magnetization    =     2.40 Bohr mag/cell

     iteration #  3     ecut=    40.00 Ry     beta= 0.70
     CG style diagonalization
     ethr =  1.59E-12,  avg # of iterations =  3.7

     negative rho (up, down):  4.803E-01 1.367E-02

     total cpu time spent up to now is     1095.7 secs

     total energy              =   -1940.16880755 Ry
     Harris-Foulkes estimate   =   -1940.16880829 Ry
     estimated scf accuracy    <       0.00000001 Ry

     total magnetization       =     1.00 Bohr mag/cell
     absolute magnetization    =     2.40 Bohr mag/cell

     iteration #  4     ecut=    40.00 Ry     beta= 0.70
     CG style diagonalization
     ethr =  1.59E-12,  avg # of iterations =  3.4

     negative rho (up, down):  4.803E-01 1.387E-02

     total cpu time spent up to now is     1123.4 secs

     total energy              =   -1940.16880711 Ry
     Harris-Foulkes estimate   =   -1940.16880756 Ry
     estimated scf accuracy    <          5.0E-09 Ry

     total magnetization       =     1.00 Bohr mag/cell
     absolute magnetization    =     2.40 Bohr mag/cell

     iteration #  5     ecut=    40.00 Ry     beta= 0.70
     CG style diagonalization
     ethr =  1.29E-12,  avg # of iterations =  3.2

     negative rho (up, down):  4.803E-01 1.388E-02

     total cpu time spent up to now is     1148.7 secs

     total energy              =   -1940.16880708 Ry
     Harris-Foulkes estimate   =   -1940.16880711 Ry
     estimated scf accuracy    <          1.8E-10 Ry

     total magnetization       =     1.00 Bohr mag/cell
     absolute magnetization    =     2.40 Bohr mag/cell

     iteration #  6     ecut=    40.00 Ry     beta= 0.70
     CG style diagonalization
     ethr =  1.00E-13,  avg # of iterations =  3.2

     negative rho (up, down):  4.803E-01 1.388E-02

     total cpu time spent up to now is     1174.2 secs

     total energy              =   -1940.16880706 Ry
     Harris-Foulkes estimate   =   -1940.16880708 Ry
     estimated scf accuracy    <          2.6E-11 Ry

     total magnetization       =     1.00 Bohr mag/cell
     absolute magnetization    =     2.40 Bohr mag/cell

     iteration #  7     ecut=    40.00 Ry     beta= 0.70
     CG style diagonalization
     ethr =  1.00E-13,  avg # of iterations =  3.2

     negative rho (up, down):  4.803E-01 1.388E-02

     total cpu time spent up to now is     1199.6 secs

     total energy              =   -1940.16880706 Ry
     Harris-Foulkes estimate   =   -1940.16880706 Ry
     estimated scf accuracy    <          1.0E-11 Ry

     total magnetization       =     1.00 Bohr mag/cell
     absolute magnetization    =     2.40 Bohr mag/cell

     iteration #  8     ecut=    40.00 Ry     beta= 0.70
     CG style diagonalization
     ethr =  1.00E-13,  avg # of iterations =  3.2

     negative rho (up, down):  4.803E-01 1.388E-02

     total cpu time spent up to now is     1225.2 secs

     total energy              =   -1940.16880705 Ry
     Harris-Foulkes estimate   =   -1940.16880706 Ry
     estimated scf accuracy    <          3.5E-12 Ry

     total magnetization       =     1.00 Bohr mag/cell
     absolute magnetization    =     2.40 Bohr mag/cell

     iteration #  9     ecut=    40.00 Ry     beta= 0.70
     CG style diagonalization
     ethr =  1.00E-13,  avg # of iterations =  3.2

     negative rho (up, down):  4.803E-01 1.388E-02

     total cpu time spent up to now is     1250.6 secs

     total energy              =   -1940.16880706 Ry
     Harris-Foulkes estimate   =   -1940.16880705 Ry
     estimated scf accuracy    <          2.6E-12 Ry

     total magnetization       =     1.00 Bohr mag/cell
     absolute magnetization    =     2.40 Bohr mag/cell

     iteration # 10     ecut=    40.00 Ry     beta= 0.70
     CG style diagonalization
     ethr =  1.00E-13,  avg # of iterations =  3.2

     negative rho (up, down):  4.803E-01 1.388E-02
 
     Magnetic moment per site:
     atom:    1    charge:    0.8508    magn:    0.0001    constr:    0.0000
     atom:    2    charge:    0.8461    magn:    0.0011    constr:    0.0000
     atom:    3    charge:    0.8471    magn:    0.0020    constr:    0.0000
     atom:    4    charge:    0.8489    magn:   -0.0004    constr:    0.0000
     atom:    5    charge:    0.8517    magn:    0.0010    constr:    0.0000
     atom:    6    charge:    0.8500    magn:   -0.0001    constr:    0.0000
     atom:    7    charge:    0.8509    magn:    0.0005    constr:    0.0000
     atom:    8    charge:    0.8498    magn:    0.0008    constr:    0.0000
     atom:    9    charge:    0.8508    magn:    0.0005    constr:    0.0000
     atom:   10    charge:    0.8436    magn:    0.0098    constr:    0.0000
     atom:   11    charge:    0.8473    magn:    0.0014    constr:    0.0000
     atom:   12    charge:    0.8527    magn:    0.0018    constr:    0.0000
     atom:   13    charge:    0.8516    magn:   -0.0004    constr:    0.0000
     atom:   14    charge:    0.8500    magn:   -0.0001    constr:    0.0000
     atom:   15    charge:    0.8498    magn:    0.0003    constr:    0.0000
     atom:   16    charge:    0.8553    magn:    0.0058    constr:    0.0000
     atom:   17    charge:    0.8614    magn:    0.0175    constr:    0.0000
     atom:   18    charge:    0.8501    magn:    0.0260    constr:    0.0000
     atom:   19    charge:    0.8604    magn:    0.0097    constr:    0.0000
     atom:   20    charge:    0.8527    magn:    0.0018    constr:    0.0000
     atom:   21    charge:    0.8517    magn:    0.0010    constr:    0.0000
     atom:   22    charge:    0.8467    magn:   -0.0000    constr:    0.0000
     atom:   23    charge:    0.8437    magn:    0.0013    constr:    0.0000
     atom:   24    charge:    0.8411    magn:    0.0104    constr:    0.0000
     atom:   25    charge:    1.6344    magn:    0.1386    constr:    0.0000
     atom:   26    charge:    0.8501    magn:    0.0260    constr:    0.0000
     atom:   27    charge:    0.8473    magn:    0.0014    constr:    0.0000
     atom:   28    charge:    0.8489    magn:   -0.0004    constr:    0.0000
     atom:   29    charge:    0.8470    magn:    0.0009    constr:    0.0000
     atom:   30    charge:    0.8474    magn:    0.0002    constr:    0.0000
     atom:   31    charge:    0.8472    magn:    0.0025    constr:    0.0000
     atom:   32    charge:    0.8411    magn:    0.0104    constr:    0.0000
     atom:   33    charge:    0.8614    magn:    0.0175    constr:    0.0000
     atom:   34    charge:    0.8436    magn:    0.0098    constr:    0.0000
     atom:   35    charge:    0.8471    magn:    0.0020    constr:    0.0000
     atom:   36    charge:    0.8460    magn:    0.0003    constr:    0.0000
     atom:   37    charge:    0.8455    magn:   -0.0004    constr:    0.0000
     atom:   38    charge:    0.8474    magn:    0.0002    constr:    0.0000
     atom:   39    charge:    0.8437    magn:    0.0013    constr:    0.0000
     atom:   40    charge:    0.8553    magn:    0.0058    constr:    0.0000
     atom:   41    charge:    0.8508    magn:    0.0005    constr:    0.0000
     atom:   42    charge:    0.8461    magn:    0.0011    constr:    0.0000
     atom:   43    charge:    0.8460    magn:    0.0009    constr:    0.0000
     atom:   44    charge:    0.8460    magn:    0.0003    constr:    0.0000
     atom:   45    charge:    0.8470    magn:    0.0009    constr:    0.0000
     atom:   46    charge:    0.8467    magn:   -0.0000    constr:    0.0000
     atom:   47    charge:    0.8498    magn:    0.0003    constr:    0.0000
     atom:   48    charge:    0.8498    magn:    0.0008    constr:    0.0000
     atom:   49    charge:    0.8508    magn:    0.0001    constr:    0.0000
     atom:   50    charge:    2.7078    magn:   -0.0008    constr:    0.0000
     atom:   51    charge:    2.7058    magn:   -0.0007    constr:    0.0000
     atom:   52    charge:    2.6965    magn:   -0.0049    constr:    0.0000
     atom:   53    charge:    2.7050    magn:   -0.0063    constr:    0.0000
     atom:   54    charge:    2.7073    magn:   -0.0002    constr:    0.0000
[...]
     atom:   55    charge:    2.7002    magn:    0.0001    constr:    0.0000
     atom:   56    charge:    2.7026    magn:    0.0001    constr:    0.0000
     atom:   57    charge:    2.7028    magn:    0.0023    constr:    0.0000
     atom:   58    charge:    2.7037    magn:   -0.0008    constr:    0.0000
     atom:   59    charge:    2.6926    magn:   -0.0262    constr:    0.0000
     atom:   60    charge:    2.6963    magn:    0.0089    constr:    0.0000
     atom:   61    charge:    2.7042    magn:   -0.0108    constr:    0.0000
     atom:   62    charge:    2.6995    magn:   -0.0060    constr:    0.0000
     atom:   63    charge:    2.7002    magn:    0.0001    constr:    0.0000
     atom:   64    charge:    2.7080    magn:   -0.0007    constr:    0.0000
     atom:   65    charge:    2.7072    magn:   -0.0057    constr:    0.0000
     atom:   66    charge:    2.7054    magn:    0.0208    constr:    0.0000
     atom:   67    charge:    1.7214    magn:    0.0781    constr:    0.0000
     atom:   68    charge:    2.6899    magn:   -0.0758    constr:    0.0000
     atom:   69    charge:    2.7042    magn:   -0.0108    constr:    0.0000
     atom:   70    charge:    2.7073    magn:   -0.0002    constr:    0.0000
     atom:   71    charge:    2.7065    magn:   -0.0004    constr:    0.0000
     atom:   72    charge:    2.7019    magn:    0.0001    constr:    0.0000
     atom:   73    charge:    2.6962    magn:   -0.0138    constr:    0.0000
     atom:   74    charge:    2.6637    magn:   -0.1157    constr:    0.0000
     atom:   75    charge:    1.7214    magn:    0.0781    constr:    0.0000
     atom:   76    charge:    2.6963    magn:    0.0089    constr:    0.0000
     atom:   77    charge:    2.7050    magn:   -0.0063    constr:    0.0000
     atom:   78    charge:    2.7057    magn:   -0.0003    constr:    0.0000
     atom:   79    charge:    2.7016    magn:   -0.0004    constr:    0.0000
     atom:   80    charge:    2.6974    magn:   -0.0082    constr:    0.0000
     atom:   81    charge:    2.6962    magn:   -0.0138    constr:    0.0000
     atom:   82    charge:    2.7054    magn:    0.0208    constr:    0.0000
     atom:   83    charge:    2.6926    magn:   -0.0262    constr:    0.0000
     atom:   84    charge:    2.6965    magn:   -0.0049    constr:    0.0000
     atom:   85    charge:    2.7031    magn:   -0.0011    constr:    0.0000
     atom:   86    charge:    2.7026    magn:   -0.0003    constr:    0.0000
     atom:   87    charge:    2.7016    magn:   -0.0004    constr:    0.0000
     atom:   88    charge:    2.7019    magn:    0.0001    constr:    0.0000
     atom:   89    charge:    2.7072    magn:   -0.0057    constr:    0.0000
     atom:   90    charge:    2.7037    magn:   -0.0008    constr:    0.0000
     atom:   91    charge:    2.7058    magn:   -0.0007    constr:    0.0000
     atom:   92    charge:    2.7091    magn:   -0.0010    constr:    0.0000
     atom:   93    charge:    2.7031    magn:   -0.0011    constr:    0.0000
     atom:   94    charge:    2.7057    magn:   -0.0003    constr:    0.0000
     atom:   95    charge:    2.7065    magn:   -0.0004    constr:    0.0000
     atom:   96    charge:    2.7080    magn:   -0.0007    constr:    0.0000
     atom:   97    charge:    2.7028    magn:    0.0023    constr:    0.0000
     atom:   98    charge:    2.7078    magn:   -0.0008    constr:    0.0000

     total cpu time spent up to now is     2874.0 secs

     End of self-consistent calculation

 ------ SPIN UP ------------


          k = 0.0000 0.0000 0.0000 ( 77468 PWs)   bands (ev):

   -21.7768 -21.5580 -21.4014 -21.3913 -21.3775 -21.3038 -21.2536 -20.8386
   -20.6620 -20.6424 -20.6288 -20.5524 -20.5397 -20.4226 -20.2923 -20.2914
   -20.2623 -20.1145 -20.1046 -19.5623 -19.4161 -19.4051 -19.3996 -19.3946
   -19.3850 -19.3768 -19.3601 -19.3138 -19.3079 -19.1663 -19.1623 -19.0356
   -18.9741 -18.9735 -18.9313 -18.7714 -18.7601 -18.5480 -18.5439 -18.5239
   -18.5114 -18.4704 -18.4195 -18.4004 -18.3688 -18.3463 -18.3288 -16.7252
   -14.8805 -13.1226 -12.7794 -12.7729 -12.7527 -12.7258 -12.7200 -12.6572
   -12.5685 -12.5362 -12.5261 -12.4809 -12.4103 -12.1539 -12.0707 -12.0569
   -12.0322 -11.9827 -11.9420 -11.5578 -11.4154 -11.4081 -11.3959 -11.3928
   -11.3751 -11.3647 -11.3630 -11.3124 -11.3004 -11.0924 -11.0476 -10.8741
   -10.7277 -10.7152 -10.6754 -10.6538 -10.5065 -10.0676 -10.0312 -10.0049
    -9.9362  -9.8812  -9.8203  -9.3971  -9.3233  -9.3140  -9.3135  -9.2937
    -9.2821  -9.2273  -9.0525  -8.9391  -8.9139  -8.9137  -8.9063  -8.8996
    -8.8909  -8.8812  -8.8794  -8.8660  -8.8362  -8.8311  -8.8269  -8.8239
    -8.8130  -8.7999  -8.7941  -8.7526  -8.7278  -8.6722  -8.6597  -8.6445
    -8.4770  -8.4571  -8.2211  -8.1969  -8.1960  -8.0972  -8.0768  -7.8996
    -7.8637  -7.8314  -7.8145  -7.8074  -7.7290  -7.7204  -7.5578  -7.5069
    -7.5042  -7.4792  -7.4583  -7.4460  -7.4321  -7.4037  -7.4015  -7.3421
    -7.3405  -7.3378  -7.3084  -7.2778  -7.2213  -7.2162  -7.2087  -7.0331
    -7.0310  -7.0021  -6.9003  -6.8238  -6.6593  -6.5466  -6.2133  -6.1958
    -6.1853  -6.1550  -6.0824  -6.0751  -6.0733  -6.0659  -6.0620  -6.0563
    -6.0464  -6.0338  -5.9963  -5.9817  -5.8693  -5.8228  -5.8087  -5.7093
    -5.5234  -5.4539  -5.4478  -5.4202  -5.3247  -5.2572  -5.1078  -5.0495
    -4.7868  -4.7846  -4.7595  -4.7543  -4.6737  -4.6732  -4.5655  -4.5197
    -4.5028  -4.4971  -4.2569  -3.4554  -0.0190   0.1766   0.6790   0.6808
     0.7075   0.7086   0.7203   0.7203   0.7742   0.7915   0.8044   0.8047
     0.8097   0.8278   0.8297   0.8513   0.8533   0.8980   0.9151   0.9227
     0.9253   1.1169   1.1999   1.2121   1.2321   1.2427   1.2916   1.3161
     1.3216   1.3258   1.3422   1.3566   1.3970   1.4356   1.4384   1.4412
     1.4524   1.4609   1.4874   1.8841   2.0871   2.0938   2.0943   2.1074
     2.1125   2.1255   2.1388   2.2090   2.2734

 ------ SPIN DOWN ----------


          k = 0.0000 0.0000 0.0000 ( 77468 PWs)   bands (ev):

   -21.7918 -21.5921 -21.4021 -21.3931 -21.3805 -21.3039 -21.2669 -20.8612
   -20.6676 -20.6529 -20.6234 -20.5527 -20.5433 -20.4298 -20.2947 -20.2896
   -20.2796 -20.1148 -20.1056 -19.5805 -19.4226 -19.4093 -19.4027 -19.3980
   -19.3874 -19.3765 -19.3699 -19.3267 -19.3015 -19.1732 -19.1703 -19.0402
   -18.9766 -18.9745 -18.9488 -18.7664 -18.7662 -18.5555 -18.5477 -18.5310
   -18.5210 -18.4751 -18.4288 -18.4059 -18.3710 -18.3507 -18.3439 -16.5621
   -14.6391 -13.0369 -12.7769 -12.7678 -12.7495 -12.7223 -12.7178 -12.6478
   -12.5665 -12.5297 -12.5233 -12.4611 -12.3983 -12.1460 -12.0688 -12.0556
   -12.0267 -11.9729 -11.9337 -11.5391 -11.4130 -11.4032 -11.3948 -11.3879
   -11.3742 -11.3636 -11.3611 -11.3068 -11.2894 -11.0671 -11.0238 -10.8619
   -10.7257 -10.7121 -10.6725 -10.6356 -10.4840 -10.0637 -10.0246 -10.0045
    -9.9271  -9.8715  -9.8072  -9.3955  -9.3177  -9.3138  -9.3037  -9.2917
    -9.2805  -9.2238  -9.0502  -8.9450  -8.9155  -8.9115  -8.9084  -8.8963
    -8.8917  -8.8882  -8.8795  -8.8630  -8.8342  -8.8309  -8.8249  -8.8213
    -8.8166  -8.7960  -8.7950  -8.7371  -8.7206  -8.6422  -8.6277  -8.6260
    -8.4633  -8.4376  -8.2222  -8.1974  -8.1958  -8.0742  -8.0703  -7.9229
    -7.8532  -7.8372  -7.8259  -7.7886  -7.7131  -7.6899  -7.5524  -7.5123
    -7.5030  -7.4768  -7.4572  -7.4511  -7.4447  -7.4046  -7.4027  -7.3432
    -7.3393  -7.3284  -7.3220  -7.2779  -7.2132  -7.1578  -7.1562  -7.0329
    -7.0292  -7.0022  -6.8608  -6.7984  -6.6431  -6.5220  -6.2379  -6.1939
    -6.1887  -6.1574  -6.0909  -6.0801  -6.0697  -6.0668  -6.0577  -6.0508
    -6.0428  -6.0407  -6.0138  -5.9589  -5.8152  -5.8087  -5.7863  -5.6865
    -5.5284  -5.4496  -5.4492  -5.4348  -5.2581  -5.2159  -5.0629  -4.9800
    -4.8016  -4.7891  -4.7778  -4.7650  -4.6770  -4.6574  -4.5697  -4.5188
    -4.5117  -4.5060  -4.1837  -2.8883   0.1834   0.4906   0.6992   0.7134
     0.7137   0.7325   0.7476   0.7482   0.7910   0.8031   0.8052   0.8074
     0.8112   0.8351   0.8541   0.8617   0.8860   0.9026   0.9468   0.9542
     1.0490   1.1656   1.2219   1.2575   1.2759   1.3158   1.3207   1.3256
     1.3372   1.3448   1.3494   1.3741   1.4217   1.4334   1.4359   1.4388
     1.4499   1.4591   1.4924   1.8871   2.0956   2.1001   2.1111   2.1213
     2.1442   2.1561   2.1562   2.2130   2.3255

     highest occupied, lowest unoccupied level (ev):    -4.1837   -4.2569

!    total energy              =   -1940.16880711 Ry
     Harris-Foulkes estimate   =   -1940.16880710 Ry
     estimated scf accuracy    <          6.2E-13 Ry

     total all-electron energy =     -7769.993284 Ry

     The total energy is the sum of the following terms:

     one-electron contribution =  -10644.53710027 Ry
     hartree contribution      =    5407.85682836 Ry
     xc contribution           =    -430.66107044 Ry
     ewald contribution        =    4370.62095007 Ry
     DFT-D3 Dispersion         =      -0.27013809 Ry
     one-center paw contrib.   =    -643.17827673 Ry

     total magnetization       =     1.00 Bohr mag/cell
     absolute magnetization    =     2.40 Bohr mag/cell

     convergence has been achieved in  25 iterations

     negative rho (up, down):  4.803E-01 1.388E-02

     Forces acting on atoms (cartesian axes, Ry/au):

     atom    1 type  1   force =     0.00000380   -0.00000723    0.00000000
     atom    2 type  1   force =     0.00000295   -0.00000492    0.00000000
     atom    3 type  1   force =     0.00000322   -0.00000187    0.00000000
     atom    4 type  1   force =    -0.00000005   -0.00000194    0.00000000
     atom    5 type  1   force =    -0.00000419    0.00000178    0.00000000
     atom    6 type  1   force =    -0.00000360    0.00000174    0.00000000
     atom    7 type  1   force =     0.00000422   -0.00000219    0.00000000
     atom    8 type  1   force =    -0.00000172   -0.00000247    0.00000000
     atom    9 type  1   force =     0.00000139   -0.00000003    0.00000000
     atom   10 type  1   force =     0.00000363    0.00000304    0.00000000
     atom   11 type  1   force =     0.00000742    0.00000055    0.00000000
     atom   12 type  1   force =     0.00000223    0.00000152    0.00000000
     atom   13 type  1   force =    -0.00000612    0.00000374    0.00000000
     atom   14 type  1   force =    -0.00000314    0.00000236    0.00000000
     atom   15 type  1   force =    -0.00000352    0.00000222    0.00000000
     atom   16 type  1   force =    -0.00000173    0.00000372    0.00000000
     atom   17 type  1   force =    -0.00000057    0.00000526    0.00000000
     atom   18 type  1   force =     0.00000267   -0.00000010    0.00000000
     atom   19 type  1   force =     0.00001097   -0.00000633    0.00000000
     atom   20 type  1   force =    -0.00000011   -0.00000249    0.00000000
     atom   21 type  1   force =    -0.00000366    0.00000274    0.00000000
     atom   22 type  1   force =    -0.00000297    0.00000385    0.00000000
     atom   23 type  1   force =    -0.00000289    0.00000509    0.00000000
     atom   24 type  1   force =    -0.00000469    0.00000531    0.00000000
     atom   25 type  4   force =    -0.00000407    0.00000225    0.00000000
     atom   26 type  1   force =     0.00000143   -0.00000231    0.00000000
     atom   27 type  1   force =     0.00000304   -0.00000654    0.00000000
     atom   28 type  1   force =     0.00000165    0.00000102    0.00000000
     atom   29 type  1   force =     0.00000173   -0.00000045    0.00000000
     atom   30 type  1   force =     0.00000236    0.00000067    0.00000000
     atom   31 type  1   force =    -0.00000086    0.00000045    0.00000000
     atom   32 type  1   force =    -0.00000694    0.00000127    0.00000000
     atom   33 type  1   force =    -0.00000496   -0.00000219    0.00000000
     atom   34 type  1   force =    -0.00000096   -0.00000456    0.00000000
     atom   35 type  1   force =     0.00000322   -0.00000176    0.00000000
     atom   36 type  1   force =     0.00000409   -0.00000150    0.00000000
     atom   37 type  1   force =     0.00000451   -0.00000268    0.00000000
     atom   38 type  1   force =     0.00000050   -0.00000247    0.00000000
     atom   39 type  1   force =    -0.00000581   -0.00000013    0.00000000
     atom   40 type  1   force =    -0.00000408   -0.00000046    0.00000000
     atom   41 type  1   force =     0.00000055   -0.00000109    0.00000000
     atom   42 type  1   force =     0.00000556   -0.00000003    0.00000000
     atom   43 type  1   force =     0.00000543   -0.00000318    0.00000000
     atom   44 type  1   force =     0.00000332   -0.00000301    0.00000000
     atom   45 type  1   force =     0.00000112   -0.00000140    0.00000000
     atom   46 type  1   force =    -0.00000509    0.00000054    0.00000000
     atom   47 type  1   force =    -0.00000379    0.00000180    0.00000000
     atom   48 type  1   force =     0.00000126    0.00000276    0.00000000
     atom   49 type  1   force =     0.00000813    0.00000045    0.00000000
     atom   50 type  2   force =     0.00000092    0.00000405    0.00000000
     atom   51 type  2   force =     0.00000075    0.00000379    0.00000000
     atom   52 type  2   force =     0.00000082   -0.00000115    0.00000000
     atom   53 type  2   force =     0.00000308    0.00000636    0.00000000
     atom   54 type  2   force =     0.00000493    0.00000008    0.00000000
     atom   55 type  2   force =     0.00000312   -0.00000714    0.00000000
     atom   56 type  2   force =     0.00000528   -0.00000317    0.00000000
     atom   57 type  2   force =     0.00000766    0.00001037    0.00000000
     atom   58 type  2   force =     0.00000370    0.00000900    0.00000000
     atom   59 type  2   force =    -0.00000421   -0.00000065    0.00000000
     atom   60 type  2   force =    -0.00000362    0.00000081    0.00000000
     atom   61 type  2   force =    -0.00000090    0.00000463    0.00000000
     atom   62 type  2   force =     0.00000213   -0.00000138    0.00000000
     atom   63 type  2   force =     0.00000767    0.00000072    0.00000000
     atom   64 type  2   force =     0.00000680    0.00000568    0.00000000
     atom   65 type  2   force =     0.00000859    0.00001323    0.00000000
     atom   66 type  2   force =     0.00000430    0.00000902    0.00000000
     atom   67 type  3   force =    -0.00000357   -0.00000181    0.00000000
     atom   68 type  2   force =    -0.00000298    0.00000172    0.00000000
     atom   69 type  2   force =    -0.00000443   -0.00000164    0.00000000
     atom   70 type  2   force =     0.00000234   -0.00000448    0.00000000
     atom   71 type  2   force =    -0.00000146   -0.00000215    0.00000000
     atom   72 type  2   force =     0.00000078    0.00000642    0.00000000
     atom   73 type  2   force =     0.00000321    0.00000734    0.00000000
     atom   74 type  2   force =    -0.00000656    0.00000384    0.00000000
     atom   75 type  5   force =    -0.00000009    0.00000414    0.00000000
     atom   76 type  2   force =    -0.00000234    0.00000271    0.00000000
     atom   77 type  2   force =    -0.00000393   -0.00000601    0.00000000
     atom   78 type  2   force =    -0.00000407   -0.00000782    0.00000000
     atom   79 type  2   force =    -0.00000378    0.00000073    0.00000000
     atom   80 type  2   force =    -0.00000029    0.00000021    0.00000000
     atom   81 type  2   force =    -0.00000478   -0.00000636    0.00000000
     atom   82 type  2   force =    -0.00000556   -0.00000810    0.00000000
     atom   83 type  2   force =    -0.00000139    0.00000393    0.00000000
     atom   84 type  2   force =     0.00000152   -0.00000025    0.00000000
     atom   85 type  2   force =    -0.00000125   -0.00000342    0.00000000
     atom   86 type  2   force =    -0.00000104    0.00000071    0.00000000
     atom   87 type  2   force =    -0.00000237    0.00000304    0.00000000
     atom   88 type  2   force =    -0.00000505   -0.00000378    0.00000000
     atom   89 type  2   force =    -0.00000716   -0.00001385    0.00000000
     atom   90 type  2   force =    -0.00000587   -0.00000773    0.00000000
     atom   91 type  2   force =    -0.00000278   -0.00000273    0.00000000
     atom   92 type  2   force =    -0.00000153    0.00000086    0.00000000
     atom   93 type  2   force =     0.00000230    0.00000298    0.00000000
     atom   94 type  2   force =     0.00000475    0.00000757    0.00000000
     atom   95 type  2   force =     0.00000127    0.00000236    0.00000000
     atom   96 type  2   force =    -0.00000144   -0.00000861    0.00000000
     atom   97 type  2   force =    -0.00000518   -0.00001183    0.00000000
     atom   98 type  2   force =    -0.00000317   -0.00000305    0.00000000

     Total force =     0.000060     Total SCF correction =     0.000001


     Computing stress (Cartesian axis) and pressure


     negative rho (up, down):  4.803E-01 1.388E-02
          total   stress  (Ry/bohr**3)                   (kbar)     P=   -0.16
   0.00000001  -0.00000000   0.00000000          0.00     -0.00      0.00
  -0.00000000   0.00000001   0.00000000         -0.00      0.00      0.00
   0.00000000   0.00000000  -0.00000334          0.00      0.00     -0.49


     Writing output data file C2Cn.save/
 
     init_run     :      8.60s CPU      8.94s WALL (       2 calls)
     electrons    :   2750.05s CPU   2778.43s WALL (       5 calls)
     update_pot   :      8.93s CPU      8.99s WALL (       3 calls)
     forces       :     16.81s CPU     17.38s WALL (       5 calls)
     stress       :     56.10s CPU     56.57s WALL (       5 calls)

     Called by init_run:
     wfcinit      :      3.35s CPU      3.52s WALL (       2 calls)
     potinit      :      1.79s CPU      1.83s WALL (       2 calls)
     hinit0       :      2.62s CPU      2.67s WALL (       2 calls)

     Called by electrons:
     c_bands      :   2662.90s CPU   2686.39s WALL (      86 calls)
     sum_band     :     46.16s CPU     47.96s WALL (      86 calls)
     v_of_rho     :     14.82s CPU     15.27s WALL (      88 calls)
     newd         :      5.13s CPU      6.26s WALL (      88 calls)
     PAW_pot      :     16.00s CPU     16.18s WALL (      91 calls)
     mix_rho      :      1.39s CPU      1.59s WALL (      86 calls)

     Called by c_bands:
     init_us_2    :      3.06s CPU      3.17s WALL (     374 calls)
     rcgdiagg     :   2576.97s CPU   2596.38s WALL (     182 calls)
     wfcrot       :     86.55s CPU     88.34s WALL (     170 calls)

     Called by sum_band:
     sum_band:bec :      0.14s CPU      0.14s WALL (     178 calls)
     addusdens    :      5.60s CPU      6.86s WALL (      86 calls)

     Called by *cgdiagg:
     h_psi        :   1320.12s CPU   1330.47s WALL (  119352 calls)
     s_psi        :    773.11s CPU    779.15s WALL (  238534 calls)
     rdiaghg      :      2.70s CPU      2.79s WALL (     170 calls)

     Called by h_psi:
     h_psi:pot    :   1318.70s CPU   1329.02s WALL (  119352 calls)
     h_psi:calbec :    474.04s CPU    477.63s WALL (  119352 calls)
     vloc_psi     :    449.99s CPU    454.46s WALL (  119352 calls)
     add_vuspsi   :    393.47s CPU    396.11s WALL (  119352 calls)
     hs_1psi      :   1632.46s CPU   1644.41s WALL (  119182 calls)
     s_1psi       :    796.55s CPU    802.48s WALL (  119182 calls)

     General routines
     calbec       :    889.32s CPU    896.80s WALL (  238762 calls)
     fft          :     11.37s CPU     11.55s WALL (    1660 calls)
     ffts         :      0.62s CPU      0.63s WALL (     172 calls)
     fftw         :    427.37s CPU    431.57s WALL (  301924 calls)
 
     Parallel routines
     fft_scatt_xy :     41.29s CPU     41.64s WALL (  303756 calls)
     fft_scatt_yz :    126.81s CPU    128.38s WALL (  303756 calls)
 
     PWSCF        :  47m24.83s CPU  48m17.74s WALL

 
   This run was terminated on:  11: 2:29   2Jul2021            

=------------------------------------------------------------------------------=
   JOB DONE.
=------------------------------------------------------------------------------=
