
     Program PWSCF v.6.4.1 starts on  1Jul2021 at 21:36:30 

     This program is part of the open-source Quantum ESPRESSO suite
     for quantum simulation of materials; please cite
         "P. Giannozzi et al., J. Phys.:Condens. Matter 21 395502 (2009);
         "P. Giannozzi et al., J. Phys.:Condens. Matter 29 465901 (2017);
          URL http://www.quantum-espresso.org", 
     in publications or presentations arising from this work. More details at
     http://www.quantum-espresso.org/quote

     Parallel version (MPI), running on    64 processors

     MPI processes distributed on     2 nodes
     R & G space division:  proc/nbgrp/npool/nimage =      64
     Waiting for input...
     Reading input from standard input

     Current dimensions of program PWSCF are:
     Max number of different atomic species (ntypx) = 10
     Max number of k-points (npk) =  40000
     Max angular momentum in pseudopotentials (lmaxx) =  3
               file N.pbe-n-kjpaw_psl.1.0.0.UPF: wavefunction(s)  2S renormalized
               file C.pbe-n-kjpaw_psl.1.0.0.UPF: wavefunction(s)  2S 2P renormalized
               file C.pbe-n-kjpaw_psl.1.0.0.UPF: wavefunction(s)  2S 2P renormalized
               file C.pbe-n-kjpaw_psl.1.0.0.UPF: wavefunction(s)  2S 2P renormalized

     --------------------------------------------
     Parameters for DFT-D3 Dispersion Correction:
     --------------------------------------------
       Reference C6 values for interpolation: 

         atom   Coordination number   C6
         B          0.000           214.36
         B          0.971           150.74
         B          1.944           106.23
         B          2.913            62.89
         B          4.586            56.06
         C1         0.000            98.23
         C1         0.987            86.49
         C1         1.998            58.72
         C1         2.999            51.56
         C1         3.984            36.41
         C2         0.000            98.23
         C2         0.987            86.49
         C2         1.998            58.72
         C2         2.999            51.56
         C2         3.984            36.41
         C3         0.000            98.23
         C3         0.987            86.49
         C3         1.998            58.72
         C3         2.999            51.56
         C3         3.984            36.41
         N          0.000            50.54
         N          0.994            44.25
         N          2.014            39.35
         N          2.990            31.16

       Values used:

         atom   Coordination number  R0_AB[au]  C6      C8
         B          3.326            3.039     62.90   2506.23
         B          3.317            3.039     62.90   2506.45
         B          3.318            3.039     62.90   2506.42
         B          3.323            3.039     62.90   2506.30
         B          3.325            3.039     62.90   2506.25
         B          3.323            3.039     62.90   2506.30
         B          3.326            3.039     62.90   2506.24
         B          3.323            3.039     62.90   2506.30
         B          3.321            3.039     62.90   2506.35
         B          3.306            3.039     62.91   2506.69
         B          3.318            3.039     62.90   2506.41
         B          3.324            3.039     62.90   2506.27
         B          3.322            3.039     62.90   2506.32
         B          3.323            3.039     62.90   2506.30
         B          3.322            3.039     62.90   2506.32
         B          3.324            3.039     62.90   2506.29
         B          3.294            3.039     62.92   2506.96
         B          3.282            3.039     62.92   2507.23
         B          3.320            3.039     62.90   2506.38
         B          3.324            3.039     62.90   2506.27
         B          3.325            3.039     62.90   2506.25
         B          3.322            3.039     62.90   2506.33
         B          3.317            3.039     62.90   2506.44
         B          3.306            3.039     62.91   2506.69
         C2         3.241            2.750     49.55   1433.03
         B          3.282            3.039     62.92   2507.23
         B          3.318            3.039     62.90   2506.41
         B          3.323            3.039     62.90   2506.30
         B          3.320            3.039     62.90   2506.38
         B          3.317            3.039     62.90   2506.45
         B          3.308            3.039     62.91   2506.64
         B          3.306            3.039     62.91   2506.69
         B          3.294            3.039     62.92   2506.96
         B          3.306            3.039     62.91   2506.69
         B          3.318            3.039     62.90   2506.42
         B          3.316            3.039     62.90   2506.46
         B          3.316            3.039     62.90   2506.45
         B          3.317            3.039     62.90   2506.45
         B          3.317            3.039     62.90   2506.44
         B          3.324            3.039     62.90   2506.29
         B          3.321            3.039     62.90   2506.35
         B          3.317            3.039     62.90   2506.45
         B          3.319            3.039     62.90   2506.40
         B          3.316            3.039     62.90   2506.46
         B          3.320            3.039     62.90   2506.38
         B          3.322            3.039     62.90   2506.33
         B          3.322            3.039     62.90   2506.32
         B          3.323            3.039     62.90   2506.30
         B          3.326            3.039     62.90   2506.23
         N          3.129            2.478     31.22    688.74
         N          3.128            2.478     31.22    688.75
         N          3.125            2.478     31.22    688.78
         N          3.128            2.478     31.22    688.76
         N          3.129            2.478     31.22    688.74
         N          3.128            2.478     31.22    688.75
         N          3.128            2.478     31.22    688.75
         N          3.128            2.478     31.22    688.76
         N          3.128            2.478     31.22    688.75
         N          3.125            2.478     31.22    688.79
         N          3.123            2.478     31.22    688.80
         N          3.129            2.478     31.22    688.74
         N          3.128            2.478     31.22    688.75
         N          3.128            2.478     31.22    688.75
         N          3.129            2.478     31.22    688.75
         N          3.129            2.478     31.22    688.75
         N          3.130            2.478     31.22    688.74
         C1         3.179            2.750     50.28   1454.14
         N          3.127            2.478     31.22    688.77
         N          3.129            2.478     31.22    688.74
         N          3.129            2.478     31.22    688.74
         N          3.128            2.478     31.22    688.75
         N          3.127            2.478     31.22    688.77
         N          3.124            2.478     31.22    688.80
         N          3.145            2.478     31.21    688.60
         C3         3.179            2.750     50.28   1454.14
         N          3.123            2.478     31.22    688.80
         N          3.128            2.478     31.22    688.76
         N          3.127            2.478     31.22    688.77
         N          3.126            2.478     31.22    688.77
         N          3.125            2.478     31.22    688.78
         N          3.124            2.478     31.22    688.80
         N          3.130            2.478     31.22    688.74
         N          3.125            2.478     31.22    688.79
         N          3.125            2.478     31.22    688.78
         N          3.126            2.478     31.22    688.77
         N          3.126            2.478     31.22    688.78
         N          3.126            2.478     31.22    688.77
         N          3.127            2.478     31.22    688.77
         N          3.129            2.478     31.22    688.75
         N          3.128            2.478     31.22    688.75
         N          3.128            2.478     31.22    688.75
         N          3.129            2.478     31.22    688.74
         N          3.126            2.478     31.22    688.77
         N          3.127            2.478     31.22    688.77
         N          3.128            2.478     31.22    688.75
         N          3.129            2.478     31.22    688.75
         N          3.128            2.478     31.22    688.76
         N          3.129            2.478     31.22    688.74

         Molecular C6 ( Ry / a.u.^6 ) =    437743.45


     gamma-point specific algorithms are used

     Subspace diagonalization in iterative solution of the eigenvalue problem:
     one sub-group per band group will be used
     scalapack distributed-memory algorithm (size of sub-group:  5*  5 procs)

     Message from routine setup:
     DEPRECATED: symmetry with ibrav=0, use correct ibrav instead
 
     Parallelization info
     --------------------
     sticks:   dense  smooth     PW     G-vecs:    dense   smooth      PW
     Min         189     189     46                19338    19338    2406
     Max         192     192     48                19354    19354    2428
     Sum       12175   12175   3055              1238175  1238175  154935
 


     bravais-lattice index     =            0
     lattice parameter (alat)  =      33.2346  a.u.
     unit-cell volume          =   36232.9939 (a.u.)^3
     number of atoms/cell      =           98
     number of atomic types    =            5
     number of electrons       =       391.00
     number of Kohn-Sham states=          245
     kinetic-energy cutoff     =      40.0000  Ry
     charge density cutoff     =     160.0000  Ry
     convergence threshold     =      1.0E-10
     mixing beta               =       0.7000
     number of iterations used =            8  plain     mixing
     Exchange-correlation      = SLA PW PBX PBC ( 1  4  3  4 0 0)
     Using LIBXC version       =    4   3   4
     nstep                     =           50


     celldm(1)=  33.234611  celldm(2)=   0.000000  celldm(3)=   0.000000
     celldm(4)=   0.000000  celldm(5)=   0.000000  celldm(6)=   0.000000

     crystal axes: (cart. coord. in units of alat)
               a(1) = (   1.001060   0.000087   0.000000 )  
               a(2) = (  -0.500455   0.866987   0.000000 )  
               a(3) = (   0.000000   0.000000   1.137204 )  

     reciprocal axes: (cart. coord. in units 2 pi/alat)
               b(1) = (  0.998891  0.576594  0.000000 )  
               b(2) = ( -0.000100  1.153362  0.000000 )  
               b(3) = (  0.000000  0.000000  0.879350 )  


     PseudoPot. # 1 for B  read from file:
     ./pseudo/B.pbe-n-kjpaw_psl.1.0.0.UPF
     MD5 check sum: 8c825a5969375aca5c2c6ad5945b3059
     Pseudo is Projector augmented-wave + core cor, Zval =  3.0
     Generated using "atomic" code by A. Dal Corso v.6.3
     Shape of augmentation charge: PSQ
     Using radial grid of 1059 points,  4 beta functions with: 
                l(1) =   0
                l(2) =   0
                l(3) =   1
                l(4) =   1
     Q(r) pseudized with 0 coefficients 


     PseudoPot. # 2 for N  read from file:
     ./pseudo/N.pbe-n-kjpaw_psl.1.0.0.UPF
     MD5 check sum: 14c48229446f9f2d411169a3abcbc3fa
     Pseudo is Projector augmented-wave + core cor, Zval =  5.0
     Generated using "atomic" code by A. Dal Corso v.6.3
     Shape of augmentation charge: PSQ
     Using radial grid of 1085 points,  4 beta functions with: 
                l(1) =   0
                l(2) =   0
                l(3) =   1
                l(4) =   1
     Q(r) pseudized with 0 coefficients 


     PseudoPot. # 3 for C  read from file:
     ./pseudo/C.pbe-n-kjpaw_psl.1.0.0.UPF
     MD5 check sum: 5f16ad9a65e90284d1d834d4ab3b0f7d
     Pseudo is Projector augmented-wave + core cor, Zval =  4.0
     Generated using "atomic" code by A. Dal Corso v.6.3
     Shape of augmentation charge: PSQ
     Using radial grid of 1073 points,  4 beta functions with: 
                l(1) =   0
                l(2) =   0
                l(3) =   1
                l(4) =   1
     Q(r) pseudized with 0 coefficients 


     PseudoPot. # 4 for C  read from file:
     ./pseudo/C.pbe-n-kjpaw_psl.1.0.0.UPF
     MD5 check sum: 5f16ad9a65e90284d1d834d4ab3b0f7d
     Pseudo is Projector augmented-wave + core cor, Zval =  4.0
     Generated using "atomic" code by A. Dal Corso v.6.3
     Shape of augmentation charge: PSQ
     Using radial grid of 1073 points,  4 beta functions with: 
                l(1) =   0
                l(2) =   0
                l(3) =   1
                l(4) =   1
     Q(r) pseudized with 0 coefficients 


     PseudoPot. # 5 for C  read from file:
     ./pseudo/C.pbe-n-kjpaw_psl.1.0.0.UPF
     MD5 check sum: 5f16ad9a65e90284d1d834d4ab3b0f7d
     Pseudo is Projector augmented-wave + core cor, Zval =  4.0
     Generated using "atomic" code by A. Dal Corso v.6.3
     Shape of augmentation charge: PSQ
     Using radial grid of 1073 points,  4 beta functions with: 
                l(1) =   0
                l(2) =   0
                l(3) =   1
                l(4) =   1
     Q(r) pseudized with 0 coefficients 


     atomic species   valence    mass     pseudopotential
        B              3.00    10.00000     B ( 1.00)
        N              5.00    14.00000     N ( 1.00)
        C1             4.00    12.00000     C ( 1.00)
        C2             4.00    12.00000     C ( 1.00)
        C3             4.00    12.00000     C ( 1.00)

     Starting magnetic structure 
     atomic species   magnetization
        B            0.000
        N            0.000
        C1           1.000
        C2           0.000
        C3           0.000

      2 Sym. Ops. (no inversion) found



   Cartesian axes

     site n.     atom                  positions (alat units)
         1           B   tau(   1) = (  -0.0000566   0.0821313   0.5686018  )
         2           B   tau(   2) = (  -0.0715758   0.2061589   0.5686018  )
         3           B   tau(   3) = (  -0.1432485   0.3302210   0.5686018  )
         4           B   tau(   4) = (  -0.2148866   0.4541277   0.5686018  )
         5           B   tau(   5) = (  -0.2859768   0.5779863   0.5686018  )
         6           B   tau(   6) = (  -0.3572853   0.7019631   0.5686018  )
         7           B   tau(   7) = (  -0.4288681   0.8256562   0.5686018  )
         8           B   tau(   8) = (   0.1428918   0.0818640   0.5686018  )
         9           B   tau(   9) = (   0.0710918   0.2051356   0.5686018  )
        10           B   tau(  10) = (  -0.0002505   0.3301962   0.5686018  )
        11           B   tau(  11) = (  -0.0723800   0.4540643   0.5686018  )
        12           B   tau(  12) = (  -0.1438864   0.5781264   0.5686018  )
        13           B   tau(  13) = (  -0.2146978   0.7020049   0.5686018  )
        14           B   tau(  14) = (  -0.2859553   0.8255102   0.5686018  )
        15           B   tau(  15) = (   0.2863292   0.0818475   0.5686018  )
        16           B   tau(  16) = (   0.2149148   0.2048279   0.5686018  )
        17           B   tau(  17) = (   0.1431657   0.3273830   0.5686018  )
        18           B   tau(  18) = (   0.0700090   0.4552616   0.5686018  )
        19           B   tau(  19) = (  -0.0021447   0.5792874   0.5686018  )
        20           B   tau(  20) = (  -0.0720102   0.7026198   0.5686018  )
        21           B   tau(  21) = (  -0.1429340   0.8257436   0.5686018  )
        22           B   tau(  22) = (   0.4291572   0.0825207   0.5686018  )
        23           B   tau(  23) = (   0.3576730   0.2061765   0.5686018  )
        24           B   tau(  24) = (   0.2855782   0.3294040   0.5686018  )
        25           C2  tau(  25) = (   0.2161857   0.4532342   0.5686018  )
        26           B   tau(  26) = (   0.1413416   0.5788132   0.5686018  )
        27           B   tau(  27) = (   0.0711839   0.7027245   0.5686018  )
        28           B   tau(  28) = (  -0.0001243   0.8261070   0.5686018  )
        29           B   tau(  29) = (   0.5719864   0.0826292   0.5686018  )
        30           B   tau(  30) = (   0.5006050   0.2063447   0.5686018  )
        31           B   tau(  31) = (   0.4291819   0.3302608   0.5686018  )
        32           B   tau(  32) = (   0.3581221   0.4550536   0.5686018  )
        33           B   tau(  33) = (   0.2886660   0.5793970   0.5686018  )
        34           B   tau(  34) = (   0.2145216   0.7021925   0.5686018  )
        35           B   tau(  35) = (   0.1430012   0.8260200   0.5686018  )
        36           B   tau(  36) = (   0.7149981   0.0826631   0.5686018  )
        37           B   tau(  37) = (   0.6434984   0.2065251   0.5686018  )
        38           B   tau(  38) = (   0.5722079   0.3303646   0.5686018  )
        39           B   tau(  39) = (   0.5008876   0.4542315   0.5686018  )
        40           B   tau(  40) = (   0.4306764   0.5785380   0.5686018  )
        41           B   tau(  41) = (   0.3584984   0.7029385   0.5686018  )
        42           B   tau(  42) = (   0.2862784   0.8259806   0.5686018  )
        43           B   tau(  43) = (   0.8581713   0.0825837   0.5686018  )
        44           B   tau(  44) = (   0.7865159   0.2065355   0.5686018  )
        45           B   tau(  45) = (   0.7150394   0.3304043   0.5686018  )
        46           B   tau(  46) = (   0.6437187   0.4541523   0.5686018  )
        47           B   tau(  47) = (   0.5728877   0.5781815   0.5686018  )
        48           B   tau(  48) = (   0.5011548   0.7023936   0.5686018  )
        49           B   tau(  49) = (   0.4294491   0.8260570   0.5686018  )
        50           N   tau(  50) = (   0.0714249   0.0409753   0.5686018  )
        51           N   tau(  51) = (  -0.0003374   0.1644462   0.5686018  )
        52           N   tau(  52) = (  -0.0717260   0.2888422   0.5686018  )
        53           N   tau(  53) = (  -0.1435754   0.4127553   0.5686018  )
        54           N   tau(  54) = (  -0.2149509   0.5366259   0.5686018  )
        55           N   tau(  55) = (  -0.2859671   0.6605844   0.5686018  )
        56           N   tau(  56) = (  -0.3574028   0.7843957   0.5686018  )
        57           N   tau(  57) = (   0.2146021   0.0408896   0.5686018  )
        58           N   tau(  58) = (   0.1428626   0.1641450   0.5686018  )
        59           N   tau(  59) = (   0.0709675   0.2875297   0.5686018  )
        60           N   tau(  60) = (  -0.0010328   0.4129344   0.5686018  )
        61           N   tau(  61) = (  -0.0729209   0.5369287   0.5686018  )
        62           N   tau(  62) = (  -0.1433303   0.6608009   0.5686018  )
        63           N   tau(  63) = (  -0.2144613   0.7844362   0.5686018  )
        64           N   tau(  64) = (   0.3577904   0.0411063   0.5686018  )
        65           N   tau(  65) = (   0.2865997   0.1642107   0.5686018  )
        66           N   tau(  66) = (   0.2151272   0.2865199   0.5686018  )
        67           C1  tau(  67) = (   0.1451919   0.4129569   0.5686018  )
        68           N   tau(  68) = (   0.0683826   0.5385684   0.5686018  )
        69           N   tau(  69) = (  -0.0008492   0.6617606   0.5686018  )
        70           N   tau(  70) = (  -0.0716019   0.7849136   0.5686018  )
        71           N   tau(  71) = (   0.5005478   0.0414917   0.5686018  )
        72           N   tau(  72) = (   0.4291605   0.1651516   0.5686018  )
        73           N   tau(  73) = (   0.3574490   0.2891363   0.5686018  )
        74           N   tau(  74) = (   0.2853139   0.4133230   0.5686018  )
        75           C3  tau(  75) = (   0.2155699   0.5348553   0.5686018  )
        76           N   tau(  76) = (   0.1424772   0.6615008   0.5686018  )
        77           N   tau(  77) = (   0.0713609   0.7850360   0.5686018  )
        78           N   tau(  78) = (   0.6434792   0.0415050   0.5686018  )
        79           N   tau(  79) = (   0.5720281   0.1652123   0.5686018  )
        80           N   tau(  80) = (   0.5005064   0.2890816   0.5686018  )
        81           N   tau(  81) = (   0.4289303   0.4129455   0.5686018  )
        82           N   tau(  82) = (   0.3600353   0.5375080   0.5686018  )
        83           N   tau(  83) = (   0.2870809   0.6618491   0.5686018  )
        84           N   tau(  84) = (   0.2145975   0.7847691   0.5686018  )
        85           N   tau(  85) = (   0.7865700   0.0414582   0.5686018  )
        86           N   tau(  86) = (   0.7149980   0.1652448   0.5686018  )
        87           N   tau(  87) = (   0.6435413   0.2890766   0.5686018  )
        88           N   tau(  88) = (   0.5721600   0.4128339   0.5686018  )
        89           N   tau(  89) = (   0.5016944   0.5367657   0.5686018  )
        90           N   tau(  90) = (   0.4298827   0.6612785   0.5686018  )
        91           N   tau(  91) = (   0.3580220   0.7851427   0.5686018  )
        92           N   tau(  92) = (   0.9295875   0.0413515   0.5686018  )
        93           N   tau(  93) = (   0.8579864   0.1651550   0.5686018  )
        94           N   tau(  94) = (   0.7864004   0.2890518   0.5686018  )
        95           N   tau(  95) = (   0.7149462   0.4128406   0.5686018  )
        96           N   tau(  96) = (   0.6439013   0.5366649   0.5686018  )
        97           N   tau(  97) = (   0.5724948   0.6607780   0.5686018  )
        98           N   tau(  98) = (   0.5008320   0.7847302   0.5686018  )

     number of k points=     1
                       cart. coord. in units 2pi/alat
        k(    1) = (   0.0000000   0.0000000   0.0000000), wk =   1.0000000

     Dense  grid:   619088 G-vectors     FFT dimensions: ( 135, 135, 160)

     Occupations read from input 

      Spin-up

        1.0000   1.0000   1.0000   1.0000   1.0000   1.0000   1.0000   1.0000
        1.0000   1.0000   1.0000   1.0000   1.0000   1.0000   1.0000   1.0000
        1.0000   1.0000   1.0000   1.0000   1.0000   1.0000   1.0000   1.0000
        1.0000   1.0000   1.0000   1.0000   1.0000   1.0000   1.0000   1.0000
        1.0000   1.0000   1.0000   1.0000   1.0000   1.0000   1.0000   1.0000
        1.0000   1.0000   1.0000   1.0000   1.0000   1.0000   1.0000   1.0000
        1.0000   1.0000   1.0000   1.0000   1.0000   1.0000   1.0000   1.0000
        1.0000   1.0000   1.0000   1.0000   1.0000   1.0000   1.0000   1.0000
        1.0000   1.0000   1.0000   1.0000   1.0000   1.0000   1.0000   1.0000
        1.0000   1.0000   1.0000   1.0000   1.0000   1.0000   1.0000   1.0000
        1.0000   1.0000   1.0000   1.0000   1.0000   1.0000   1.0000   1.0000
        1.0000   1.0000   1.0000   1.0000   1.0000   1.0000   1.0000   1.0000
        1.0000   1.0000   1.0000   1.0000   1.0000   1.0000   1.0000   1.0000
        1.0000   1.0000   1.0000   1.0000   1.0000   1.0000   1.0000   1.0000
        1.0000   1.0000   1.0000   1.0000   1.0000   1.0000   1.0000   1.0000
        1.0000   1.0000   1.0000   1.0000   1.0000   1.0000   1.0000   1.0000
        1.0000   1.0000   1.0000   1.0000   1.0000   1.0000   1.0000   1.0000
        1.0000   1.0000   1.0000   1.0000   1.0000   1.0000   1.0000   1.0000
        1.0000   1.0000   1.0000   1.0000   1.0000   1.0000   1.0000   1.0000
        1.0000   1.0000   1.0000   1.0000   1.0000   1.0000   1.0000   1.0000
        1.0000   1.0000   1.0000   1.0000   1.0000   1.0000   1.0000   1.0000
        1.0000   1.0000   1.0000   1.0000   1.0000   1.0000   1.0000   1.0000
        1.0000   1.0000   1.0000   1.0000   1.0000   1.0000   1.0000   1.0000
        1.0000   1.0000   1.0000   1.0000   1.0000   1.0000   1.0000   1.0000
        1.0000   1.0000   0.0000   1.0000   1.0000   0.0000   0.0000   0.0000
        0.0000   0.0000   0.0000   0.0000   0.0000   0.0000   0.0000   0.0000
        0.0000   0.0000   0.0000   0.0000   0.0000   0.0000   0.0000   0.0000
        0.0000   0.0000   0.0000   0.0000   0.0000   0.0000   0.0000   0.0000
        0.0000   0.0000   0.0000   0.0000   0.0000   0.0000   0.0000   0.0000
        0.0000   0.0000   0.0000   0.0000   0.0000   0.0000   0.0000   0.0000
        0.0000   0.0000   0.0000   0.0000   0.0000

      Spin-down

        1.0000   1.0000   1.0000   1.0000   1.0000   1.0000   1.0000   1.0000
        1.0000   1.0000   1.0000   1.0000   1.0000   1.0000   1.0000   1.0000
        1.0000   1.0000   1.0000   1.0000   1.0000   1.0000   1.0000   1.0000
        1.0000   1.0000   1.0000   1.0000   1.0000   1.0000   1.0000   1.0000
        1.0000   1.0000   1.0000   1.0000   1.0000   1.0000   1.0000   1.0000
        1.0000   1.0000   1.0000   1.0000   1.0000   1.0000   1.0000   1.0000
        1.0000   1.0000   1.0000   1.0000   1.0000   1.0000   1.0000   1.0000
        1.0000   1.0000   1.0000   1.0000   1.0000   1.0000   1.0000   1.0000
        1.0000   1.0000   1.0000   1.0000   1.0000   1.0000   1.0000   1.0000
        1.0000   1.0000   1.0000   1.0000   1.0000   1.0000   1.0000   1.0000
        1.0000   1.0000   1.0000   1.0000   1.0000   1.0000   1.0000   1.0000
        1.0000   1.0000   1.0000   1.0000   1.0000   1.0000   1.0000   1.0000
        1.0000   1.0000   1.0000   1.0000   1.0000   1.0000   1.0000   1.0000
        1.0000   1.0000   1.0000   1.0000   1.0000   1.0000   1.0000   1.0000
        1.0000   1.0000   1.0000   1.0000   1.0000   1.0000   1.0000   1.0000
        1.0000   1.0000   1.0000   1.0000   1.0000   1.0000   1.0000   1.0000
        1.0000   1.0000   1.0000   1.0000   1.0000   1.0000   1.0000   1.0000
        1.0000   1.0000   1.0000   1.0000   1.0000   1.0000   1.0000   1.0000
        1.0000   1.0000   1.0000   1.0000   1.0000   1.0000   1.0000   1.0000
        1.0000   1.0000   1.0000   1.0000   1.0000   1.0000   1.0000   1.0000
        1.0000   1.0000   1.0000   1.0000   1.0000   1.0000   1.0000   1.0000
        1.0000   1.0000   1.0000   1.0000   1.0000   1.0000   1.0000   1.0000
        1.0000   1.0000   1.0000   1.0000   1.0000   1.0000   1.0000   1.0000
        1.0000   1.0000   1.0000   1.0000   1.0000   1.0000   1.0000   1.0000
        1.0000   1.0000   1.0000   0.0000   0.0000   0.0000   0.0000   0.0000
        0.0000   0.0000   0.0000   0.0000   0.0000   0.0000   0.0000   0.0000
        0.0000   0.0000   0.0000   0.0000   0.0000   0.0000   0.0000   0.0000
        0.0000   0.0000   0.0000   0.0000   0.0000   0.0000   0.0000   0.0000
        0.0000   0.0000   0.0000   0.0000   0.0000   0.0000   0.0000   0.0000
        0.0000   0.0000   0.0000   0.0000   0.0000   0.0000   0.0000   0.0000
        0.0000   0.0000   0.0000   0.0000   0.0000

     Estimated max dynamical RAM per process >     122.42 MB

     Estimated total dynamical RAM >       7.65 GB
     Generating pointlists ...
     new r_m :   0.0336 (alat units)  1.1165 (a.u.) for type    1
     new r_m :   0.0329 (alat units)  1.0943 (a.u.) for type    2
     new r_m :   0.0337 (alat units)  1.1190 (a.u.) for type    3
     new r_m :   0.0329 (alat units)  1.0943 (a.u.) for type    4
     new r_m :   0.0337 (alat units)  1.1190 (a.u.) for type    5

     Check: negative core charge=   -0.000006

     Initial potential from superposition of free atoms

     starting charge  390.98597, renormalised to  391.00000

     negative rho (up, down):  5.509E-02 5.821E-02
     Starting wfcs are  392 randomized atomic wfcs
     Checking if some PAW data can be deallocated... 

     total cpu time spent up to now is        8.1 secs

     Self-consistent Calculation

     iteration #  1     ecut=    40.00 Ry     beta= 0.70
     CG style diagonalization
     ethr =  1.00E-02,  avg # of iterations =  3.1

     negative rho (up, down):  3.252E-01 1.262E-02

     total cpu time spent up to now is       46.7 secs

     total energy              =   -1933.13169432 Ry
     Harris-Foulkes estimate   =   -1946.22100488 Ry
     estimated scf accuracy    <      19.85325389 Ry

     total magnetization       =     1.00 Bohr mag/cell
     absolute magnetization    =     2.27 Bohr mag/cell

     iteration #  2     ecut=    40.00 Ry     beta= 0.70
     CG style diagonalization
     ethr =  5.08E-03,  avg # of iterations =  4.0

     negative rho (up, down):  3.591E-01 1.244E-02

     total cpu time spent up to now is       82.8 secs

     total energy              =   -1937.01244008 Ry
     Harris-Foulkes estimate   =   -1943.85488117 Ry
     estimated scf accuracy    <      13.43820323 Ry

     total magnetization       =     1.00 Bohr mag/cell
     absolute magnetization    =     2.82 Bohr mag/cell

     iteration #  3     ecut=    40.00 Ry     beta= 0.70
     CG style diagonalization
     ethr =  3.44E-03,  avg # of iterations =  3.7

     negative rho (up, down):  3.949E-01 1.272E-02

     total cpu time spent up to now is      115.5 secs

     total energy              =   -1939.38217667 Ry
     Harris-Foulkes estimate   =   -1940.55335409 Ry
     estimated scf accuracy    <       2.39832062 Ry

     total magnetization       =     1.00 Bohr mag/cell
     absolute magnetization    =     2.88 Bohr mag/cell

     iteration #  4     ecut=    40.00 Ry     beta= 0.70
     CG style diagonalization
     ethr =  6.13E-04,  avg # of iterations =  3.8

     negative rho (up, down):  4.494E-01 1.257E-02

     total cpu time spent up to now is      148.7 secs

     total energy              =   -1940.01661969 Ry
     Harris-Foulkes estimate   =   -1940.36895868 Ry
     estimated scf accuracy    <       1.07727043 Ry

     total magnetization       =     1.00 Bohr mag/cell
     absolute magnetization    =     2.64 Bohr mag/cell

     iteration #  5     ecut=    40.00 Ry     beta= 0.70
     CG style diagonalization
     c_bands:  1 eigenvalues not converged
     ethr =  2.76E-04,  avg # of iterations =  3.3

     negative rho (up, down):  4.138E-01 4.354E-02

     total cpu time spent up to now is      176.4 secs

     total energy              =   -1940.11197090 Ry
     Harris-Foulkes estimate   =   -1940.19875815 Ry
     estimated scf accuracy    <       0.34278243 Ry

     total magnetization       =     1.00 Bohr mag/cell
     absolute magnetization    =     2.48 Bohr mag/cell

     iteration #  6     ecut=    40.00 Ry     beta= 0.70
     CG style diagonalization
     c_bands:  4 eigenvalues not converged
     c_bands:  2 eigenvalues not converged
     ethr =  8.77E-05,  avg # of iterations =  3.5

     negative rho (up, down):  4.161E-01 4.583E-02

     total cpu time spent up to now is      206.7 secs

     total energy              =   -1940.13258429 Ry
     Harris-Foulkes estimate   =   -1940.18300222 Ry
     estimated scf accuracy    <       0.26166252 Ry

     total magnetization       =     1.00 Bohr mag/cell
     absolute magnetization    =     2.94 Bohr mag/cell

     iteration #  7     ecut=    40.00 Ry     beta= 0.70
     CG style diagonalization
     ethr =  6.69E-05,  avg # of iterations =  3.0

     negative rho (up, down):  4.429E-01 2.976E-02

     total cpu time spent up to now is      231.4 secs

     total energy              =   -1940.16083293 Ry
     Harris-Foulkes estimate   =   -1940.16674645 Ry
     estimated scf accuracy    <       0.02617993 Ry

     total magnetization       =     1.00 Bohr mag/cell
     absolute magnetization    =     2.31 Bohr mag/cell

     iteration #  8     ecut=    40.00 Ry     beta= 0.70
     CG style diagonalization
     c_bands:  5 eigenvalues not converged
     c_bands:  2 eigenvalues not converged
     ethr =  6.70E-06,  avg # of iterations =  4.3

     negative rho (up, down):  4.639E-01 1.896E-02

     total cpu time spent up to now is      270.7 secs

     total energy              =   -1940.16607810 Ry
     Harris-Foulkes estimate   =   -1940.16636811 Ry
     estimated scf accuracy    <       0.00645383 Ry

     total magnetization       =     1.00 Bohr mag/cell
     absolute magnetization    =     2.31 Bohr mag/cell

     iteration #  9     ecut=    40.00 Ry     beta= 0.70
     CG style diagonalization
     c_bands:  4 eigenvalues not converged
     c_bands:  1 eigenvalues not converged
     ethr =  1.65E-06,  avg # of iterations =  9.6

     negative rho (up, down):  4.743E-01 1.467E-02

     total cpu time spent up to now is      353.3 secs

     total energy              =   -1940.16764109 Ry
     Harris-Foulkes estimate   =   -1940.16822469 Ry
     estimated scf accuracy    <       0.00323790 Ry

     total magnetization       =     1.00 Bohr mag/cell
     absolute magnetization    =     2.35 Bohr mag/cell

     iteration # 10     ecut=    40.00 Ry     beta= 0.70
     CG style diagonalization
     ethr =  8.28E-07,  avg # of iterations =  3.6

     negative rho (up, down):  4.793E-01 1.359E-02

     total cpu time spent up to now is      383.8 secs

     total energy              =   -1940.16812441 Ry
     Harris-Foulkes estimate   =   -1940.16892540 Ry
     estimated scf accuracy    <       0.00345322 Ry

     total magnetization       =     1.00 Bohr mag/cell
     absolute magnetization    =     2.35 Bohr mag/cell

     iteration # 11     ecut=    40.00 Ry     beta= 0.70
     CG style diagonalization
     ethr =  8.28E-07,  avg # of iterations =  3.1

     negative rho (up, down):  4.793E-01 1.353E-02

     total cpu time spent up to now is      409.4 secs

     total energy              =   -1940.16858276 Ry
     Harris-Foulkes estimate   =   -1940.16874578 Ry
     estimated scf accuracy    <       0.00052632 Ry

     total magnetization       =     1.00 Bohr mag/cell
     absolute magnetization    =     2.38 Bohr mag/cell

     iteration # 12     ecut=    40.00 Ry     beta= 0.70
     CG style diagonalization
     ethr =  1.35E-07,  avg # of iterations =  3.4

     negative rho (up, down):  4.825E-01 1.367E-02

     total cpu time spent up to now is      438.3 secs

     total energy              =   -1940.16874570 Ry
     Harris-Foulkes estimate   =   -1940.16873391 Ry
     estimated scf accuracy    <       0.00022219 Ry

     total magnetization       =     1.00 Bohr mag/cell
     absolute magnetization    =     2.38 Bohr mag/cell

     iteration # 13     ecut=    40.00 Ry     beta= 0.70
     CG style diagonalization
     ethr =  5.68E-08,  avg # of iterations =  3.4

     negative rho (up, down):  4.818E-01 1.368E-02

     total cpu time spent up to now is      466.8 secs

     total energy              =   -1940.16879072 Ry
     Harris-Foulkes estimate   =   -1940.16879307 Ry
     estimated scf accuracy    <       0.00003328 Ry

     total magnetization       =     1.00 Bohr mag/cell
     absolute magnetization    =     2.39 Bohr mag/cell

     iteration # 14     ecut=    40.00 Ry     beta= 0.70
     CG style diagonalization
     ethr =  8.51E-09,  avg # of iterations =  3.5

     negative rho (up, down):  4.808E-01 1.374E-02

     total cpu time spent up to now is      496.7 secs

     total energy              =   -1940.16879661 Ry
     Harris-Foulkes estimate   =   -1940.16879841 Ry
     estimated scf accuracy    <       0.00002230 Ry

     total magnetization       =     1.00 Bohr mag/cell
     absolute magnetization    =     2.40 Bohr mag/cell

     iteration # 15     ecut=    40.00 Ry     beta= 0.70
     CG style diagonalization
     ethr =  5.70E-09,  avg # of iterations =  3.4

     negative rho (up, down):  4.808E-01 1.382E-02

     total cpu time spent up to now is      525.4 secs

     total energy              =   -1940.16879595 Ry
     Harris-Foulkes estimate   =   -1940.16880325 Ry
     estimated scf accuracy    <       0.00001673 Ry

     total magnetization       =     1.00 Bohr mag/cell
     absolute magnetization    =     2.40 Bohr mag/cell

     iteration # 16     ecut=    40.00 Ry     beta= 0.70
     CG style diagonalization
     ethr =  4.28E-09,  avg # of iterations =  3.6

     negative rho (up, down):  4.804E-01 1.382E-02

     total cpu time spent up to now is      556.2 secs

     total energy              =   -1940.16880107 Ry
     Harris-Foulkes estimate   =   -1940.16880312 Ry
     estimated scf accuracy    <       0.00000535 Ry

     total magnetization       =     1.00 Bohr mag/cell
     absolute magnetization    =     2.40 Bohr mag/cell

     iteration # 17     ecut=    40.00 Ry     beta= 0.70
     CG style diagonalization
     ethr =  1.37E-09,  avg # of iterations =  3.4

     negative rho (up, down):  4.804E-01 1.384E-02

     total cpu time spent up to now is      584.9 secs

     total energy              =   -1940.16880220 Ry
     Harris-Foulkes estimate   =   -1940.16880230 Ry
     estimated scf accuracy    <       0.00000040 Ry

     total magnetization       =     1.00 Bohr mag/cell
     absolute magnetization    =     2.40 Bohr mag/cell

     iteration # 18     ecut=    40.00 Ry     beta= 0.70
     CG style diagonalization
     ethr =  1.02E-10,  avg # of iterations =  3.9

     negative rho (up, down):  4.803E-01 1.384E-02

     total cpu time spent up to now is      620.0 secs

     total energy              =   -1940.16880233 Ry
     Harris-Foulkes estimate   =   -1940.16880240 Ry
     estimated scf accuracy    <       0.00000020 Ry

     total magnetization       =     1.00 Bohr mag/cell
     absolute magnetization    =     2.40 Bohr mag/cell

     iteration # 19     ecut=    40.00 Ry     beta= 0.70
     CG style diagonalization
     ethr =  5.16E-11,  avg # of iterations =  3.5

     negative rho (up, down):  4.803E-01 1.385E-02

     total cpu time spent up to now is      649.4 secs

     total energy              =   -1940.16880237 Ry
     Harris-Foulkes estimate   =   -1940.16880239 Ry
     estimated scf accuracy    <       0.00000007 Ry

     total magnetization       =     1.00 Bohr mag/cell
     absolute magnetization    =     2.40 Bohr mag/cell

     iteration # 20     ecut=    40.00 Ry     beta= 0.70
     CG style diagonalization
     ethr =  1.82E-11,  avg # of iterations =  3.3

     negative rho (up, down):  4.803E-01 1.386E-02

     total cpu time spent up to now is      677.5 secs

     total energy              =   -1940.16880238 Ry
     Harris-Foulkes estimate   =   -1940.16880239 Ry
     estimated scf accuracy    <       0.00000003 Ry

     total magnetization       =     1.00 Bohr mag/cell
     absolute magnetization    =     2.40 Bohr mag/cell

     iteration # 21     ecut=    40.00 Ry     beta= 0.70
     CG style diagonalization
     ethr =  6.96E-12,  avg # of iterations =  3.3

     negative rho (up, down):  4.803E-01 1.386E-02

     total cpu time spent up to now is      705.2 secs

     total energy              =   -1940.16880239 Ry
     Harris-Foulkes estimate   =   -1940.16880239 Ry
     estimated scf accuracy    <       0.00000001 Ry

     total magnetization       =     1.00 Bohr mag/cell
     absolute magnetization    =     2.40 Bohr mag/cell

     iteration # 22     ecut=    40.00 Ry     beta= 0.70
     CG style diagonalization
     ethr =  3.75E-12,  avg # of iterations =  3.2

     negative rho (up, down):  4.803E-01 1.385E-02

     total cpu time spent up to now is      731.8 secs

     total energy              =   -1940.16880239 Ry
     Harris-Foulkes estimate   =   -1940.16880239 Ry
     estimated scf accuracy    <          2.7E-09 Ry

     total magnetization       =     1.00 Bohr mag/cell
     absolute magnetization    =     2.40 Bohr mag/cell

     iteration # 23     ecut=    40.00 Ry     beta= 0.70
     CG style diagonalization
     ethr =  6.84E-13,  avg # of iterations =  3.8

     negative rho (up, down):  4.803E-01 1.385E-02

     total cpu time spent up to now is      764.9 secs

     total energy              =   -1940.16880239 Ry
     Harris-Foulkes estimate   =   -1940.16880239 Ry
     estimated scf accuracy    <          7.7E-10 Ry

     total magnetization       =     1.00 Bohr mag/cell
     absolute magnetization    =     2.40 Bohr mag/cell

     iteration # 24     ecut=    40.00 Ry     beta= 0.70
     CG style diagonalization
     ethr =  1.98E-13,  avg # of iterations =  3.7

     negative rho (up, down):  4.803E-01 1.385E-02

     total cpu time spent up to now is      797.2 secs

     total energy              =   -1940.16880239 Ry
     Harris-Foulkes estimate   =   -1940.16880239 Ry
     estimated scf accuracy    <          2.5E-10 Ry

     total magnetization       =     1.00 Bohr mag/cell
     absolute magnetization    =     2.40 Bohr mag/cell

     iteration # 25     ecut=    40.00 Ry     beta= 0.70
     CG style diagonalization
     ethr =  1.00E-13,  avg # of iterations =  3.7

     negative rho (up, down):  4.803E-01 1.385E-02
 
     Magnetic moment per site:
     atom:    1    charge:    0.8510    magn:    0.0001    constr:    0.0000
     atom:    2    charge:    0.8463    magn:    0.0011    constr:    0.0000
     atom:    3    charge:    0.8473    magn:    0.0020    constr:    0.0000
     atom:    4    charge:    0.8491    magn:   -0.0004    constr:    0.0000
     atom:    5    charge:    0.8519    magn:    0.0010    constr:    0.0000
     atom:    6    charge:    0.8500    magn:   -0.0001    constr:    0.0000
     atom:    7    charge:    0.8510    magn:    0.0005    constr:    0.0000
     atom:    8    charge:    0.8499    magn:    0.0008    constr:    0.0000
     atom:    9    charge:    0.8510    magn:    0.0005    constr:    0.0000
     atom:   10    charge:    0.8437    magn:    0.0098    constr:    0.0000
     atom:   11    charge:    0.8474    magn:    0.0014    constr:    0.0000
     atom:   12    charge:    0.8530    magn:    0.0018    constr:    0.0000
     atom:   13    charge:    0.8517    magn:   -0.0004    constr:    0.0000
     atom:   14    charge:    0.8500    magn:   -0.0001    constr:    0.0000
     atom:   15    charge:    0.8499    magn:    0.0003    constr:    0.0000
     atom:   16    charge:    0.8555    magn:    0.0058    constr:    0.0000
     atom:   17    charge:    0.8616    magn:    0.0175    constr:    0.0000
     atom:   18    charge:    0.8502    magn:    0.0260    constr:    0.0000
     atom:   19    charge:    0.8607    magn:    0.0097    constr:    0.0000
     atom:   20    charge:    0.8530    magn:    0.0018    constr:    0.0000
     atom:   21    charge:    0.8519    magn:    0.0010    constr:    0.0000
     atom:   22    charge:    0.8469    magn:   -0.0000    constr:    0.0000
     atom:   23    charge:    0.8439    magn:    0.0013    constr:    0.0000
     atom:   24    charge:    0.8413    magn:    0.0104    constr:    0.0000
     atom:   25    charge:    1.6344    magn:    0.1386    constr:    0.0000
     atom:   26    charge:    0.8502    magn:    0.0260    constr:    0.0000
     atom:   27    charge:    0.8474    magn:    0.0014    constr:    0.0000
     atom:   28    charge:    0.8491    magn:   -0.0004    constr:    0.0000
     atom:   29    charge:    0.8471    magn:    0.0009    constr:    0.0000
     atom:   30    charge:    0.8476    magn:    0.0002    constr:    0.0000
     atom:   31    charge:    0.8475    magn:    0.0025    constr:    0.0000
     atom:   32    charge:    0.8413    magn:    0.0104    constr:    0.0000
     atom:   33    charge:    0.8616    magn:    0.0175    constr:    0.0000
     atom:   34    charge:    0.8437    magn:    0.0098    constr:    0.0000
     atom:   35    charge:    0.8473    magn:    0.0020    constr:    0.0000
     atom:   36    charge:    0.8462    magn:    0.0003    constr:    0.0000
     atom:   37    charge:    0.8456    magn:   -0.0004    constr:    0.0000
     atom:   38    charge:    0.8476    magn:    0.0002    constr:    0.0000
     atom:   39    charge:    0.8439    magn:    0.0013    constr:    0.0000
     atom:   40    charge:    0.8555    magn:    0.0058    constr:    0.0000
     atom:   41    charge:    0.8510    magn:    0.0005    constr:    0.0000
     atom:   42    charge:    0.8463    magn:    0.0011    constr:    0.0000
     atom:   43    charge:    0.8462    magn:    0.0009    constr:    0.0000
     atom:   44    charge:    0.8462    magn:    0.0003    constr:    0.0000
     atom:   45    charge:    0.8471    magn:    0.0009    constr:    0.0000
     atom:   46    charge:    0.8469    magn:   -0.0000    constr:    0.0000
     atom:   47    charge:    0.8499    magn:    0.0003    constr:    0.0000
     atom:   48    charge:    0.8499    magn:    0.0008    constr:    0.0000
     atom:   49    charge:    0.8510    magn:    0.0001    constr:    0.0000
     atom:   50    charge:    2.7079    magn:   -0.0008    constr:    0.0000
     atom:   51    charge:    2.7058    magn:   -0.0007    constr:    0.0000
     atom:   52    charge:    2.6964    magn:   -0.0049    constr:    0.0000
     atom:   53    charge:    2.7051    magn:   -0.0063    constr:    0.0000
     atom:   54    charge:    2.7073    magn:   -0.0002    constr:    0.0000
     atom:   55    charge:    2.7002    magn:    0.0001    constr:    0.0000
     atom:   56    charge:    2.7027    magn:    0.0001    constr:    0.0000
     atom:   57    charge:    2.7029    magn:    0.0023    constr:    0.0000
     atom:   58    charge:    2.7038    magn:   -0.0008    constr:    0.0000
     atom:   59    charge:    2.6926    magn:   -0.0263    constr:    0.0000
     atom:   60    charge:    2.6963    magn:    0.0088    constr:    0.0000
     atom:   61    charge:    2.7042    magn:   -0.0108    constr:    0.0000
     atom:   62    charge:    2.6995    magn:   -0.0060    constr:    0.0000
     atom:   63    charge:    2.7002    magn:    0.0001    constr:    0.0000
     atom:   64    charge:    2.7080    magn:   -0.0007    constr:    0.0000
     atom:   65    charge:    2.7072    magn:   -0.0057    constr:    0.0000
     atom:   66    charge:    2.7055    magn:    0.0208    constr:    0.0000
     atom:   67    charge:    1.7213    magn:    0.0782    constr:    0.0000
     atom:   68    charge:    2.6899    magn:   -0.0758    constr:    0.0000
     atom:   69    charge:    2.7042    magn:   -0.0108    constr:    0.0000
     atom:   70    charge:    2.7073    magn:   -0.0002    constr:    0.0000
     atom:   71    charge:    2.7066    magn:   -0.0004    constr:    0.0000
     atom:   72    charge:    2.7019    magn:    0.0001    constr:    0.0000
     atom:   73    charge:    2.6962    magn:   -0.0137    constr:    0.0000
     atom:   74    charge:    2.6638    magn:   -0.1156    constr:    0.0000
     atom:   75    charge:    1.7213    magn:    0.0782    constr:    0.0000
     atom:   76    charge:    2.6963    magn:    0.0088    constr:    0.0000
     atom:   77    charge:    2.7051    magn:   -0.0063    constr:    0.0000
     atom:   78    charge:    2.7058    magn:   -0.0003    constr:    0.0000
     atom:   79    charge:    2.7017    magn:   -0.0004    constr:    0.0000
     atom:   80    charge:    2.6975    magn:   -0.0082    constr:    0.0000
     atom:   81    charge:    2.6962    magn:   -0.0137    constr:    0.0000
     atom:   82    charge:    2.7056    magn:    0.0208    constr:    0.0000
     atom:   83    charge:    2.6926    magn:   -0.0263    constr:    0.0000
     atom:   84    charge:    2.6964    magn:   -0.0049    constr:    0.0000
     atom:   85    charge:    2.7031    magn:   -0.0011    constr:    0.0000
     atom:   86    charge:    2.7026    magn:   -0.0003    constr:    0.0000
     atom:   87    charge:    2.7017    magn:   -0.0004    constr:    0.0000
     atom:   88    charge:    2.7019    magn:    0.0001    constr:    0.0000
     atom:   89    charge:    2.7072    magn:   -0.0057    constr:    0.0000
     atom:   90    charge:    2.7038    magn:   -0.0008    constr:    0.0000
     atom:   91    charge:    2.7058    magn:   -0.0007    constr:    0.0000
     atom:   92    charge:    2.7092    magn:   -0.0010    constr:    0.0000
     atom:   93    charge:    2.7031    magn:   -0.0011    constr:    0.0000
     atom:   94    charge:    2.7058    magn:   -0.0003    constr:    0.0000
     atom:   95    charge:    2.7066    magn:   -0.0004    constr:    0.0000
     atom:   96    charge:    2.7080    magn:   -0.0007    constr:    0.0000
     atom:   97    charge:    2.7029    magn:    0.0023    constr:    0.0000
     atom:   98    charge:    2.7079    magn:   -0.0008    constr:    0.0000

     total cpu time spent up to now is      829.5 secs

     End of self-consistent calculation

 ------ SPIN UP ------------


          k = 0.0000 0.0000 0.0000 ( 77468 PWs)   bands (ev):

   -21.7768 -21.5582 -21.4014 -21.3913 -21.3773 -21.3039 -21.2534 -20.8384
   -20.6621 -20.6423 -20.6288 -20.5522 -20.5396 -20.4225 -20.2924 -20.2913
   -20.2621 -20.1145 -20.1045 -19.5622 -19.4161 -19.4051 -19.3996 -19.3947
   -19.3850 -19.3766 -19.3601 -19.3137 -19.3079 -19.1661 -19.1624 -19.0355
   -18.9740 -18.9733 -18.9314 -18.7716 -18.7598 -18.5482 -18.5440 -18.5238
   -18.5114 -18.4702 -18.4196 -18.4001 -18.3687 -18.3466 -18.3288 -16.7256
   -14.8796 -13.1226 -12.7795 -12.7729 -12.7527 -12.7258 -12.7197 -12.6569
   -12.5686 -12.5362 -12.5262 -12.4807 -12.4105 -12.1541 -12.0706 -12.0568
   -12.0321 -11.9827 -11.9418 -11.5577 -11.4154 -11.4081 -11.3961 -11.3930
   -11.3754 -11.3648 -11.3629 -11.3123 -11.3004 -11.0924 -11.0476 -10.8742
   -10.7279 -10.7154 -10.6753 -10.6536 -10.5062 -10.0676 -10.0312 -10.0050
    -9.9364  -9.8811  -9.8204  -9.3971  -9.3232  -9.3141  -9.3138  -9.2938
    -9.2820  -9.2274  -9.0527  -8.9391  -8.9140  -8.9140  -8.9064  -8.8997
    -8.8908  -8.8813  -8.8795  -8.8659  -8.8361  -8.8311  -8.8271  -8.8238
    -8.8128  -8.7997  -8.7941  -8.7526  -8.7277  -8.6719  -8.6595  -8.6446
    -8.4770  -8.4568  -8.2212  -8.1971  -8.1962  -8.0973  -8.0767  -7.8995
    -7.8639  -7.8315  -7.8145  -7.8074  -7.7288  -7.7202  -7.5579  -7.5067
    -7.5041  -7.4790  -7.4579  -7.4464  -7.4322  -7.4036  -7.4018  -7.3422
    -7.3405  -7.3382  -7.3083  -7.2784  -7.2211  -7.2157  -7.2086  -7.0334
    -7.0313  -7.0023  -6.9003  -6.8236  -6.6589  -6.5467  -6.2133  -6.1957
    -6.1853  -6.1553  -6.0824  -6.0752  -6.0735  -6.0659  -6.0620  -6.0563
    -6.0463  -6.0339  -5.9962  -5.9817  -5.8691  -5.8229  -5.8088  -5.7095
    -5.5233  -5.4539  -5.4478  -5.4203  -5.3247  -5.2573  -5.1087  -5.0482
    -4.7870  -4.7848  -4.7595  -4.7543  -4.6737  -4.6731  -4.5654  -4.5197
    -4.5032  -4.4973  -4.2572  -3.4549  -0.0189   0.1766   0.6789   0.6806
     0.7075   0.7085   0.7199   0.7203   0.7741   0.7916   0.8043   0.8047
     0.8096   0.8277   0.8296   0.8512   0.8532   0.8976   0.9151   0.9223
     0.9252   1.1169   1.1999   1.2119   1.2319   1.2425   1.2913   1.3162
     1.3216   1.3258   1.3422   1.3566   1.3970   1.4356   1.4384   1.4411
     1.4523   1.4608   1.4873   1.8841   2.0870   2.0937   2.0942   2.1071
     2.1125   2.1255   2.1387   2.2712   2.2931

 ------ SPIN DOWN ----------


          k = 0.0000 0.0000 0.0000 ( 77468 PWs)   bands (ev):

   -21.7918 -21.5922 -21.4021 -21.3931 -21.3802 -21.3040 -21.2667 -20.8610
   -20.6677 -20.6529 -20.6234 -20.5525 -20.5432 -20.4297 -20.2946 -20.2897
   -20.2795 -20.1147 -20.1056 -19.5803 -19.4226 -19.4093 -19.4027 -19.3981
   -19.3875 -19.3764 -19.3699 -19.3267 -19.3015 -19.1730 -19.1705 -19.0400
   -18.9765 -18.9744 -18.9489 -18.7664 -18.7662 -18.5557 -18.5477 -18.5310
   -18.5210 -18.4749 -18.4288 -18.4057 -18.3710 -18.3510 -18.3440 -16.5624
   -14.6382 -13.0368 -12.7770 -12.7678 -12.7495 -12.7223 -12.7175 -12.6476
   -12.5666 -12.5297 -12.5234 -12.4610 -12.3985 -12.1461 -12.0686 -12.0555
   -12.0266 -11.9728 -11.9335 -11.5390 -11.4130 -11.4033 -11.3950 -11.3880
   -11.3745 -11.3636 -11.3610 -11.3067 -11.2894 -11.0670 -11.0238 -10.8619
   -10.7259 -10.7123 -10.6724 -10.6355 -10.4838 -10.0638 -10.0246 -10.0046
    -9.9272  -9.8714  -9.8073  -9.3956  -9.3176  -9.3140  -9.3040  -9.2918
    -9.2805  -9.2239  -9.0504  -8.9450  -8.9157  -8.9118  -8.9085  -8.8963
    -8.8918  -8.8881  -8.8796  -8.8630  -8.8342  -8.8309  -8.8252  -8.8215
    -8.8163  -8.7960  -8.7948  -8.7372  -8.7206  -8.6420  -8.6278  -8.6258
    -8.4634  -8.4373  -8.2223  -8.1976  -8.1960  -8.0740  -8.0704  -7.9228
    -7.8535  -7.8374  -7.8258  -7.7886  -7.7129  -7.6897  -7.5525  -7.5120
    -7.5030  -7.4766  -7.4567  -7.4512  -7.4452  -7.4045  -7.4030  -7.3430
    -7.3396  -7.3285  -7.3220  -7.2785  -7.2128  -7.1578  -7.1560  -7.0332
    -7.0294  -7.0025  -6.8608  -6.7982  -6.6428  -6.5221  -6.2378  -6.1938
    -6.1887  -6.1577  -6.0909  -6.0802  -6.0697  -6.0668  -6.0577  -6.0510
    -6.0427  -6.0407  -6.0139  -5.9590  -5.8149  -5.8089  -5.7865  -5.6867
    -5.5283  -5.4497  -5.4492  -5.4349  -5.2580  -5.2160  -5.0638  -4.9786
    -4.8019  -4.7893  -4.7779  -4.7651  -4.6769  -4.6574  -4.5696  -4.5188
    -4.5121  -4.5064  -4.1839  -2.8875   0.1835   0.4906   0.6991   0.7134
     0.7137   0.7324   0.7472   0.7483   0.7911   0.8031   0.8052   0.8072
     0.8112   0.8351   0.8541   0.8616   0.8859   0.9022   0.9464   0.9542
     1.0489   1.1656   1.2216   1.2573   1.2757   1.3158   1.3208   1.3257
     1.3371   1.3448   1.3494   1.3740   1.4217   1.4334   1.4359   1.4388
     1.4498   1.4590   1.4923   1.8870   2.0955   2.1000   2.1110   2.1213
     2.1441   2.1561   2.1563   2.2126   2.2861

     highest occupied, lowest unoccupied level (ev):    -4.1839   -4.2572

!    total energy              =   -1940.16880239 Ry
     Harris-Foulkes estimate   =   -1940.16880239 Ry
     estimated scf accuracy    <          4.5E-11 Ry

     total all-electron energy =     -7769.993279 Ry

     The total energy is the sum of the following terms:

     one-electron contribution =  -10644.29595295 Ry
     hartree contribution      =    5407.73473254 Ry
     xc contribution           =    -430.65870371 Ry
     ewald contribution        =    4370.49950422 Ry
     DFT-D3 Dispersion         =      -0.27013348 Ry
     one-center paw contrib.   =    -643.17824901 Ry

     total magnetization       =     1.00 Bohr mag/cell
     absolute magnetization    =     2.40 Bohr mag/cell

     convergence has been achieved in  25 iterations

     negative rho (up, down):  4.803E-01 1.385E-02

     Forces acting on atoms (cartesian axes, Ry/au):

     atom    1 type  1   force =    -0.00007694    0.00001566    0.00000000
     atom    2 type  1   force =    -0.00012778   -0.00000296    0.00000000
     atom    3 type  1   force =    -0.00005255   -0.00013891    0.00000000
     atom    4 type  1   force =    -0.00005757   -0.00014780    0.00000000
     atom    5 type  1   force =    -0.00000083    0.00000167    0.00000000
     atom    6 type  1   force =     0.00008239   -0.00006585    0.00000000
     atom    7 type  1   force =     0.00005626   -0.00003298    0.00000000
     atom    8 type  1   force =     0.00003099   -0.00003343    0.00000000
     atom    9 type  1   force =    -0.00004194    0.00002153    0.00000000
     atom   10 type  1   force =    -0.00000109   -0.00002613    0.00000000
     atom   11 type  1   force =     0.00010068   -0.00004009    0.00000000
     atom   12 type  1   force =     0.00002571   -0.00010214    0.00000000
     atom   13 type  1   force =     0.00007806   -0.00004637    0.00000000
     atom   14 type  1   force =     0.00009706   -0.00003949    0.00000000
     atom   15 type  1   force =     0.00010322   -0.00001688    0.00000000
     atom   16 type  1   force =    -0.00003668   -0.00003296    0.00000000
     atom   17 type  1   force =    -0.00009918    0.00011384    0.00000000
     atom   18 type  1   force =     0.00002744   -0.00002668    0.00000000
     atom   19 type  1   force =     0.00015702   -0.00009187    0.00000000
     atom   20 type  1   force =     0.00010007    0.00002726    0.00000000
     atom   21 type  1   force =    -0.00000260   -0.00000034    0.00000000
     atom   22 type  1   force =    -0.00000232    0.00007966    0.00000000
     atom   23 type  1   force =     0.00005569   -0.00002270    0.00000000
     atom   24 type  1   force =    -0.00007776    0.00001475    0.00000000
     atom   25 type  4   force =    -0.00018055    0.00010720    0.00000000
     atom   26 type  1   force =     0.00003661   -0.00001124    0.00000000
     atom   27 type  1   force =     0.00008520   -0.00006869    0.00000000
     atom   28 type  1   force =     0.00009832    0.00012423    0.00000000
     atom   29 type  1   force =    -0.00003077    0.00011393    0.00000000
     atom   30 type  1   force =     0.00005880    0.00005771    0.00000000
     atom   31 type  1   force =     0.00000812   -0.00000494    0.00000000
     atom   32 type  1   force =    -0.00005224    0.00006035    0.00000000
     atom   33 type  1   force =    -0.00014787    0.00002846    0.00000000
     atom   34 type  1   force =     0.00002244    0.00001398    0.00000000
     atom   35 type  1   force =     0.00009537    0.00011533    0.00000000
     atom   36 type  1   force =     0.00000425    0.00012285    0.00000000
     atom   37 type  1   force =    -0.00006183    0.00003646    0.00000000
     atom   38 type  1   force =    -0.00002001   -0.00007928    0.00000000
     atom   39 type  1   force =     0.00004852   -0.00003667    0.00000000
     atom   40 type  1   force =     0.00001069    0.00004875    0.00000000
     atom   41 type  1   force =    -0.00003769    0.00002592    0.00000000
     atom   42 type  1   force =    -0.00005994    0.00011201    0.00000000
     atom   43 type  1   force =    -0.00002827    0.00001690    0.00000000
     atom   44 type  1   force =    -0.00010371   -0.00006391    0.00000000
     atom   45 type  1   force =    -0.00011333   -0.00002925    0.00000000
     atom   46 type  1   force =    -0.00006876   -0.00003754    0.00000000
     atom   47 type  1   force =     0.00006757   -0.00008053    0.00000000
     atom   48 type  1   force =     0.00004529   -0.00001064    0.00000000
     atom   49 type  1   force =    -0.00005162    0.00005823    0.00000000
     atom   50 type  2   force =     0.00006707   -0.00011687    0.00000000
     atom   51 type  2   force =    -0.00002795   -0.00005001    0.00000000
     atom   52 type  2   force =     0.00001351   -0.00006224    0.00000000
     atom   53 type  2   force =     0.00006124   -0.00003575    0.00000000
     atom   54 type  2   force =    -0.00009230    0.00000714    0.00000000
     atom   55 type  2   force =     0.00001185    0.00009370    0.00000000
     atom   56 type  2   force =     0.00014876   -0.00008464    0.00000000
     atom   57 type  2   force =     0.00008141   -0.00014573    0.00000000
     atom   58 type  2   force =    -0.00002164   -0.00019130    0.00000000
     atom   59 type  2   force =    -0.00001157   -0.00003479    0.00000000
     atom   60 type  2   force =     0.00010437    0.00002099    0.00000000
     atom   61 type  2   force =     0.00002643    0.00001226    0.00000000
     atom   62 type  2   force =    -0.00005668    0.00003388    0.00000000
     atom   63 type  2   force =    -0.00007433   -0.00005568    0.00000000
     atom   64 type  2   force =    -0.00008140   -0.00005459    0.00000000
     atom   65 type  2   force =     0.00000539   -0.00014036    0.00000000
     atom   66 type  2   force =    -0.00011187   -0.00000277    0.00000000
     atom   67 type  3   force =    -0.00011974    0.00003061    0.00000000
     atom   68 type  2   force =     0.00012068   -0.00006881    0.00000000
     atom   69 type  2   force =     0.00000362   -0.00002758    0.00000000
     atom   70 type  2   force =    -0.00005179    0.00007717    0.00000000
     atom   71 type  2   force =    -0.00013045    0.00006170    0.00000000
     atom   72 type  2   force =    -0.00003935    0.00002063    0.00000000
     atom   73 type  2   force =    -0.00006960   -0.00005956    0.00000000
     atom   74 type  2   force =    -0.00004414    0.00002608    0.00000000
     atom   75 type  5   force =    -0.00008585    0.00008624    0.00000000
     atom   76 type  2   force =     0.00003377   -0.00010023    0.00000000
     atom   77 type  2   force =     0.00006146   -0.00003465    0.00000000
     atom   78 type  2   force =     0.00001251    0.00005496    0.00000000
     atom   79 type  2   force =    -0.00008247    0.00006526    0.00000000
     atom   80 type  2   force =    -0.00003706    0.00002076    0.00000000
     atom   81 type  2   force =     0.00001558    0.00009055    0.00000000
     atom   82 type  2   force =    -0.00005441    0.00009804    0.00000000
     atom   83 type  2   force =     0.00002330    0.00002647    0.00000000
     atom   84 type  2   force =     0.00005945    0.00001918    0.00000000
     atom   85 type  2   force =     0.00003182    0.00000614    0.00000000
     atom   86 type  2   force =    -0.00004675    0.00002599    0.00000000
     atom   87 type  2   force =    -0.00009883    0.00003745    0.00000000
     atom   88 type  2   force =    -0.00003874    0.00002322    0.00000000
     atom   89 type  2   force =     0.00012281    0.00006502    0.00000000
     atom   90 type  2   force =     0.00015318    0.00011386    0.00000000
     atom   91 type  2   force =     0.00002789    0.00004934    0.00000000
     atom   92 type  2   force =     0.00007104   -0.00004059    0.00000000
     atom   93 type  2   force =     0.00001060   -0.00003162    0.00000000
     atom   94 type  2   force =    -0.00004153   -0.00003964    0.00000000
     atom   95 type  2   force =    -0.00011898    0.00008181    0.00000000
     atom   96 type  2   force =     0.00000608    0.00009805    0.00000000
     atom   97 type  2   force =     0.00016667    0.00000291    0.00000000
     atom   98 type  2   force =     0.00013498    0.00000158    0.00000000

     Total force =     0.001009     Total SCF correction =     0.000014


     Computing stress (Cartesian axis) and pressure


     negative rho (up, down):  4.803E-01 1.385E-02
          total   stress  (Ry/bohr**3)                   (kbar)     P=   -0.18
  -0.00000014   0.00000001   0.00000000         -0.02      0.00      0.00
   0.00000001  -0.00000013   0.00000000          0.00     -0.02      0.00
   0.00000000   0.00000000  -0.00000334          0.00      0.00     -0.49


     BFGS Geometry Optimization

     number of scf cycles    =   1
     number of bfgs steps    =   0

     enthalpy new            =   -1940.1688023933 Ry

     new trust radius        =       0.0002099753 bohr
     new conv_thr            =            1.0E-10 Ry

     new unit-cell volume =  36232.75132 a.u.^3 (  5369.13973 Ang^3 )
     density =      0.36309 g/cm^3

CELL_PARAMETERS (alat= 33.23461096)
   1.001056303   0.000087129   0.000000000
  -0.500452695   0.866983755   0.000000000
   0.000000000   0.000000000   1.137203616

ATOMIC_POSITIONS (crystal)
B        0.047297856   0.094727676   0.500000000
B        0.047369754   0.237783057   0.500000000
B        0.047309921   0.380874007   0.500000000
B        0.047194883   0.523790295   0.500000000
B        0.047603978   0.666656440   0.500000000
B        0.047860245   0.809651418   0.500000000
B        0.047677264   0.952322691   0.500000000
B        0.189936105   0.094403405   0.500000000
B        0.189292153   0.236589373   0.500000000
B        0.190138595   0.380835038   0.500000000
B        0.189513483   0.523706564   0.500000000
B        0.189616581   0.666800178   0.500000000
B        0.190313948   0.809686022   0.500000000
B        0.190348539   0.952139724   0.500000000
B        0.333207358   0.094370572   0.500000000
B        0.332777454   0.236218119   0.500000000
B        0.331773190   0.377580846   0.500000000
B        0.332433081   0.525073671   0.500000000
B        0.331874678   0.668125311   0.500000000
B        0.333199805   0.810383409   0.500000000
B        0.333343550   0.952396012   0.500000000
B        0.476263642   0.095136070   0.500000000
B        0.476157925   0.237759597   0.500000000
B        0.475192006   0.379894066   0.500000000
C2       0.477274719   0.522725336   0.500000000
B        0.474926307   0.667566910   0.500000000
B        0.476293415   0.810486505   0.500000000
B        0.476209708   0.952805122   0.500000000
B        0.618996824   0.095248096   0.500000000
B        0.619029964   0.237942085   0.500000000
B        0.619132731   0.380867245   0.500000000
B        0.620105913   0.524807965   0.500000000
B        0.622419135   0.668226782   0.500000000
B        0.619164963   0.809861426   0.500000000
B        0.619126016   0.952690106   0.500000000
B        0.761870746   0.095273140   0.500000000
B        0.761864977   0.238135076   0.500000000
B        0.762057950   0.380970063   0.500000000
B        0.762240425   0.523842077   0.500000000
B        0.763781879   0.667222532   0.500000000
B        0.763410651   0.810707847   0.500000000
B        0.762216972   0.952630262   0.500000000
B        0.904836529   0.095163495   0.500000000
B        0.904726907   0.238129305   0.500000000
B        0.904751948   0.381003219   0.500000000
B        0.904863945   0.523736370   0.500000000
B        0.905629437   0.666792636   0.500000000
B        0.905596591   0.810063866   0.500000000
B        0.905272322   0.952702126   0.500000000
N        0.094971815   0.047248116   0.500000000
N        0.094480068   0.189664346   0.500000000
N        0.094897678   0.333144758   0.500000000
N        0.094577360   0.476069554   0.500000000
N        0.094700262   0.618945907   0.500000000
N        0.095241240   0.761925193   0.500000000
N        0.095274640   0.904725374   0.500000000
N        0.237940755   0.047133939   0.500000000
N        0.237345355   0.189297773   0.500000000
N        0.236675906   0.331617669   0.500000000
N        0.237067545   0.476263806   0.500000000
N        0.236751043   0.619281124   0.500000000
N        0.237841581   0.762158469   0.500000000
N        0.238074835   0.904758787   0.500000000
N        0.381091988   0.047372697   0.500000000
N        0.380962618   0.189360826   0.500000000
N        0.380091057   0.330439607   0.500000000
C1       0.383136559   0.476275556   0.500000000
N        0.378844741   0.621155287   0.500000000
N        0.380718910   0.763249001   0.500000000
N        0.381054126   0.905299762   0.500000000
N        0.523913938   0.047807006   0.500000000
N        0.523909349   0.190437335   0.500000000
N        0.523764022   0.333441119   0.500000000
N        0.523316474   0.476683525   0.500000000
C3       0.523724413   0.616863378   0.500000000
N        0.523736189   0.762932479   0.500000000
N        0.523930453   0.905422655   0.500000000
N        0.666698627   0.047807740   0.500000000
N        0.666653031   0.190494560   0.500000000
N        0.666633549   0.333366447   0.500000000
N        0.666558871   0.476235974   0.500000000
N        0.669560359   0.619908915   0.500000000
N        0.668382292   0.763324073   0.500000000
N        0.666855225   0.905102338   0.500000000
N        0.809603476   0.047737680   0.500000000
N        0.809483574   0.190516428   0.500000000
N        0.809505439   0.333346972   0.500000000
N        0.809562645   0.476090651   0.500000000
N        0.810639135   0.619037359   0.500000000
N        0.810702178   0.762654615   0.500000000
N        0.810335628   0.905519932   0.500000000
N        0.952401290   0.047598714   0.500000000
N        0.952262329   0.190396520   0.500000000
N        0.952192268   0.333301372   0.500000000
N        0.952192981   0.476086072   0.500000000
N        0.952627288   0.618908016   0.500000000
N        0.952866048   0.762059237   0.500000000
N        0.952751872   0.905028181   0.500000000



     Writing output data file C2Cn.save/
     NEW-OLD atomic charge density approx. for the potential
     NEW k-points:
   0.0000000   0.0000000   0.0000000   1.0000000
   0.0000000   0.0000000   0.0000000   1.0000000

     Check: negative core charge=   -0.000006

     negative rho (up, down):  4.803E-01 6.983E-03
     extrapolated charge  390.99738, renormalised to  391.00000

     total cpu time spent up to now is      850.9 secs

     Self-consistent Calculation

     iteration #  1     ecut=    40.00 Ry     beta= 0.70
     CG style diagonalization
     ethr =  1.00E-06,  avg # of iterations =  2.0

     Threshold (ethr) on eigenvalues was too large:
     Diagonalizing with lowered threshold

     CG style diagonalization
     ethr =  5.08E-11,  avg # of iterations = 16.0

     negative rho (up, down):  4.803E-01 1.283E-02

     total cpu time spent up to now is     1041.9 secs

     total energy              =   -1940.16880492 Ry
     Harris-Foulkes estimate   =   -1940.23789812 Ry
     estimated scf accuracy    <       0.00000048 Ry

     total magnetization       =     1.00 Bohr mag/cell
     absolute magnetization    =     2.40 Bohr mag/cell

     iteration #  2     ecut=    40.00 Ry     beta= 0.70
     CG style diagonalization
     ethr =  1.24E-10,  avg # of iterations =  4.1

     negative rho (up, down):  4.803E-01 1.314E-02

     total cpu time spent up to now is     1079.5 secs

     total energy              =   -1940.16880461 Ry
     Harris-Foulkes estimate   =   -1940.16880540 Ry
     estimated scf accuracy    <       0.00000062 Ry

     total magnetization       =     1.00 Bohr mag/cell
     absolute magnetization    =     2.40 Bohr mag/cell

     iteration #  3     ecut=    40.00 Ry     beta= 0.70
     CG style diagonalization
     ethr =  1.24E-10,  avg # of iterations =  3.4

     negative rho (up, down):  4.803E-01 1.331E-02

     total cpu time spent up to now is     1109.7 secs

     total energy              =   -1940.16880438 Ry
     Harris-Foulkes estimate   =   -1940.16880474 Ry
     estimated scf accuracy    <       0.00000012 Ry

     total magnetization       =     1.00 Bohr mag/cell
     absolute magnetization    =     2.40 Bohr mag/cell

     iteration #  4     ecut=    40.00 Ry     beta= 0.70
     CG style diagonalization
     ethr =  2.97E-11,  avg # of iterations =  3.2

     negative rho (up, down):  4.803E-01 1.364E-02

     total cpu time spent up to now is     1137.0 secs

     total energy              =   -1940.16880354 Ry
     Harris-Foulkes estimate   =   -1940.16880442 Ry
     estimated scf accuracy    <       0.00000005 Ry

     total magnetization       =     1.00 Bohr mag/cell
     absolute magnetization    =     2.40 Bohr mag/cell

     iteration #  5     ecut=    40.00 Ry     beta= 0.70
     CG style diagonalization
     ethr =  1.22E-11,  avg # of iterations =  3.3

     negative rho (up, down):  4.803E-01 1.378E-02

     total cpu time spent up to now is     1164.7 secs

     total energy              =   -1940.16880331 Ry
     Harris-Foulkes estimate   =   -1940.16880355 Ry
     estimated scf accuracy    <       0.00000001 Ry

     total magnetization       =     1.00 Bohr mag/cell
     absolute magnetization    =     2.40 Bohr mag/cell

     iteration #  6     ecut=    40.00 Ry     beta= 0.70
     CG style diagonalization
     ethr =  3.42E-12,  avg # of iterations =  3.2

     negative rho (up, down):  4.803E-01 1.379E-02

     total cpu time spent up to now is     1191.5 secs

     total energy              =   -1940.16880322 Ry
     Harris-Foulkes estimate   =   -1940.16880331 Ry
     estimated scf accuracy    <          3.7E-09 Ry

     total magnetization       =     1.00 Bohr mag/cell
     absolute magnetization    =     2.40 Bohr mag/cell

     iteration #  7     ecut=    40.00 Ry     beta= 0.70
     CG style diagonalization
     ethr =  9.38E-13,  avg # of iterations =  3.2

     negative rho (up, down):  4.803E-01 1.386E-02

     total cpu time spent up to now is     1218.4 secs

     total energy              =   -1940.16880305 Ry
     Harris-Foulkes estimate   =   -1940.16880322 Ry
     estimated scf accuracy    <          3.8E-10 Ry

     total magnetization       =     1.00 Bohr mag/cell
     absolute magnetization    =     2.40 Bohr mag/cell

     iteration #  8     ecut=    40.00 Ry     beta= 0.70
     CG style diagonalization
     ethr =  1.00E-13,  avg # of iterations =  3.9

     negative rho (up, down):  4.803E-01 1.386E-02

     total cpu time spent up to now is     1252.9 secs

     total energy              =   -1940.16880302 Ry
     Harris-Foulkes estimate   =   -1940.16880305 Ry
     estimated scf accuracy    <          1.5E-10 Ry

     total magnetization       =     1.00 Bohr mag/cell
     absolute magnetization    =     2.40 Bohr mag/cell

     iteration #  9     ecut=    40.00 Ry     beta= 0.70
     CG style diagonalization
     ethr =  1.00E-13,  avg # of iterations =  3.0

     negative rho (up, down):  4.803E-01 1.387E-02
 
     Magnetic moment per site:
     atom:    1    charge:    0.8510    magn:    0.0001    constr:    0.0000
     atom:    2    charge:    0.8463    magn:    0.0011    constr:    0.0000
     atom:    3    charge:    0.8473    magn:    0.0020    constr:    0.0000
     atom:    4    charge:    0.8490    magn:   -0.0004    constr:    0.0000
     atom:    5    charge:    0.8519    magn:    0.0010    constr:    0.0000
     atom:    6    charge:    0.8501    magn:   -0.0001    constr:    0.0000
     atom:    7    charge:    0.8510    magn:    0.0005    constr:    0.0000
     atom:    8    charge:    0.8499    magn:    0.0008    constr:    0.0000
     atom:    9    charge:    0.8510    magn:    0.0005    constr:    0.0000
     atom:   10    charge:    0.8437    magn:    0.0098    constr:    0.0000
     atom:   11    charge:    0.8474    magn:    0.0014    constr:    0.0000
     atom:   12    charge:    0.8529    magn:    0.0018    constr:    0.0000
     atom:   13    charge:    0.8518    magn:   -0.0004    constr:    0.0000
     atom:   14    charge:    0.8501    magn:   -0.0001    constr:    0.0000
     atom:   15    charge:    0.8499    magn:    0.0003    constr:    0.0000
     atom:   16    charge:    0.8555    magn:    0.0058    constr:    0.0000
     atom:   17    charge:    0.8616    magn:    0.0175    constr:    0.0000
     atom:   18    charge:    0.8503    magn:    0.0260    constr:    0.0000
     atom:   19    charge:    0.8606    magn:    0.0097    constr:    0.0000
     atom:   20    charge:    0.8529    magn:    0.0018    constr:    0.0000
     atom:   21    charge:    0.8519    magn:    0.0010    constr:    0.0000
     atom:   22    charge:    0.8469    magn:   -0.0000    constr:    0.0000
     atom:   23    charge:    0.8439    magn:    0.0013    constr:    0.0000
     atom:   24    charge:    0.8413    magn:    0.0104    constr:    0.0000
     atom:   25    charge:    1.6344    magn:    0.1386    constr:    0.0000
     atom:   26    charge:    0.8503    magn:    0.0260    constr:    0.0000
     atom:   27    charge:    0.8474    magn:    0.0014    constr:    0.0000
     atom:   28    charge:    0.8490    magn:   -0.0004    constr:    0.0000
     atom:   29    charge:    0.8471    magn:    0.0009    constr:    0.0000
     atom:   30    charge:    0.8476    magn:    0.0002    constr:    0.0000
     atom:   31    charge:    0.8475    magn:    0.0025    constr:    0.0000
     atom:   32    charge:    0.8413    magn:    0.0104    constr:    0.0000
     atom:   33    charge:    0.8616    magn:    0.0175    constr:    0.0000
     atom:   34    charge:    0.8437    magn:    0.0098    constr:    0.0000
     atom:   35    charge:    0.8473    magn:    0.0020    constr:    0.0000
     atom:   36    charge:    0.8462    magn:    0.0003    constr:    0.0000
     atom:   37    charge:    0.8456    magn:   -0.0004    constr:    0.0000
     atom:   38    charge:    0.8476    magn:    0.0002    constr:    0.0000
     atom:   39    charge:    0.8439    magn:    0.0013    constr:    0.0000
     atom:   40    charge:    0.8555    magn:    0.0058    constr:    0.0000
     atom:   41    charge:    0.8510    magn:    0.0005    constr:    0.0000
     atom:   42    charge:    0.8463    magn:    0.0011    constr:    0.0000
     atom:   43    charge:    0.8462    magn:    0.0009    constr:    0.0000
     atom:   44    charge:    0.8462    magn:    0.0003    constr:    0.0000
     atom:   45    charge:    0.8471    magn:    0.0009    constr:    0.0000
     atom:   46    charge:    0.8469    magn:   -0.0000    constr:    0.0000
     atom:   47    charge:    0.8499    magn:    0.0003    constr:    0.0000
     atom:   48    charge:    0.8499    magn:    0.0008    constr:    0.0000
     atom:   49    charge:    0.8510    magn:    0.0001    constr:    0.0000
     atom:   50    charge:    2.7079    magn:   -0.0008    constr:    0.0000
     atom:   51    charge:    2.7057    magn:   -0.0007    constr:    0.0000
     atom:   52    charge:    2.6964    magn:   -0.0049    constr:    0.0000
     atom:   53    charge:    2.7050    magn:   -0.0063    constr:    0.0000
     atom:   54    charge:    2.7073    magn:   -0.0002    constr:    0.0000
     atom:   55    charge:    2.7002    magn:    0.0001    constr:    0.0000
     atom:   56    charge:    2.7027    magn:    0.0001    constr:    0.0000
     atom:   57    charge:    2.7029    magn:    0.0023    constr:    0.0000
     atom:   58    charge:    2.7038    magn:   -0.0008    constr:    0.0000
     atom:   59    charge:    2.6926    magn:   -0.0263    constr:    0.0000
     atom:   60    charge:    2.6963    magn:    0.0089    constr:    0.0000
     atom:   61    charge:    2.7042    magn:   -0.0108    constr:    0.0000
     atom:   62    charge:    2.6995    magn:   -0.0060    constr:    0.0000
     atom:   63    charge:    2.7002    magn:    0.0001    constr:    0.0000
     atom:   64    charge:    2.7080    magn:   -0.0007    constr:    0.0000
     atom:   65    charge:    2.7072    magn:   -0.0057    constr:    0.0000
     atom:   66    charge:    2.7055    magn:    0.0208    constr:    0.0000
     atom:   67    charge:    1.7213    magn:    0.0782    constr:    0.0000
     atom:   68    charge:    2.6899    magn:   -0.0758    constr:    0.0000
     atom:   69    charge:    2.7042    magn:   -0.0108    constr:    0.0000
     atom:   70    charge:    2.7073    magn:   -0.0002    constr:    0.0000
     atom:   71    charge:    2.7066    magn:   -0.0004    constr:    0.0000
     atom:   72    charge:    2.7019    magn:    0.0001    constr:    0.0000
     atom:   73    charge:    2.6961    magn:   -0.0137    constr:    0.0000
     atom:   74    charge:    2.6638    magn:   -0.1156    constr:    0.0000
     atom:   75    charge:    1.7213    magn:    0.0782    constr:    0.0000
     atom:   76    charge:    2.6963    magn:    0.0089    constr:    0.0000
     atom:   77    charge:    2.7050    magn:   -0.0063    constr:    0.0000
     atom:   78    charge:    2.7058    magn:   -0.0003    constr:    0.0000
     atom:   79    charge:    2.7017    magn:   -0.0004    constr:    0.0000
     atom:   80    charge:    2.6975    magn:   -0.0082    constr:    0.0000
     atom:   81    charge:    2.6961    magn:   -0.0137    constr:    0.0000
     atom:   82    charge:    2.7055    magn:    0.0208    constr:    0.0000
     atom:   83    charge:    2.6926    magn:   -0.0263    constr:    0.0000
     atom:   84    charge:    2.6964    magn:   -0.0049    constr:    0.0000
     atom:   85    charge:    2.7031    magn:   -0.0011    constr:    0.0000
     atom:   86    charge:    2.7026    magn:   -0.0003    constr:    0.0000
     atom:   87    charge:    2.7017    magn:   -0.0004    constr:    0.0000
     atom:   88    charge:    2.7019    magn:    0.0001    constr:    0.0000
     atom:   89    charge:    2.7072    magn:   -0.0057    constr:    0.0000
     atom:   90    charge:    2.7038    magn:   -0.0008    constr:    0.0000
     atom:   91    charge:    2.7057    magn:   -0.0007    constr:    0.0000
     atom:   92    charge:    2.7092    magn:   -0.0010    constr:    0.0000
     atom:   93    charge:    2.7031    magn:   -0.0011    constr:    0.0000
     atom:   94    charge:    2.7058    magn:   -0.0003    constr:    0.0000
     atom:   95    charge:    2.7066    magn:   -0.0004    constr:    0.0000
     atom:   96    charge:    2.7080    magn:   -0.0007    constr:    0.0000
     atom:   97    charge:    2.7029    magn:    0.0023    constr:    0.0000
[...]
     atom:   55    charge:    2.7003    magn:    0.0001    constr:    0.0000
     atom:   56    charge:    2.7027    magn:    0.0001    constr:    0.0000
     atom:   57    charge:    2.7029    magn:    0.0023    constr:    0.0000
     atom:   58    charge:    2.7038    magn:   -0.0008    constr:    0.0000
     atom:   59    charge:    2.6927    magn:   -0.0262    constr:    0.0000
     atom:   60    charge:    2.6963    magn:    0.0089    constr:    0.0000
     atom:   61    charge:    2.7043    magn:   -0.0108    constr:    0.0000
     atom:   62    charge:    2.6996    magn:   -0.0060    constr:    0.0000
     atom:   63    charge:    2.7003    magn:    0.0001    constr:    0.0000
     atom:   64    charge:    2.7080    magn:   -0.0007    constr:    0.0000
     atom:   65    charge:    2.7072    magn:   -0.0057    constr:    0.0000
     atom:   66    charge:    2.7055    magn:    0.0208    constr:    0.0000
     atom:   67    charge:    1.7214    magn:    0.0781    constr:    0.0000
     atom:   68    charge:    2.6900    magn:   -0.0758    constr:    0.0000
     atom:   69    charge:    2.7043    magn:   -0.0108    constr:    0.0000
     atom:   70    charge:    2.7074    magn:   -0.0002    constr:    0.0000
     atom:   71    charge:    2.7066    magn:   -0.0004    constr:    0.0000
     atom:   72    charge:    2.7019    magn:    0.0001    constr:    0.0000
     atom:   73    charge:    2.6962    magn:   -0.0138    constr:    0.0000
     atom:   74    charge:    2.6638    magn:   -0.1157    constr:    0.0000
     atom:   75    charge:    1.7214    magn:    0.0781    constr:    0.0000
     atom:   76    charge:    2.6963    magn:    0.0089    constr:    0.0000
     atom:   77    charge:    2.7050    magn:   -0.0063    constr:    0.0000
     atom:   78    charge:    2.7058    magn:   -0.0003    constr:    0.0000
     atom:   79    charge:    2.7017    magn:   -0.0004    constr:    0.0000
     atom:   80    charge:    2.6974    magn:   -0.0082    constr:    0.0000
     atom:   81    charge:    2.6962    magn:   -0.0138    constr:    0.0000
     atom:   82    charge:    2.7055    magn:    0.0208    constr:    0.0000
     atom:   83    charge:    2.6927    magn:   -0.0262    constr:    0.0000
     atom:   84    charge:    2.6965    magn:   -0.0049    constr:    0.0000
     atom:   85    charge:    2.7032    magn:   -0.0011    constr:    0.0000
     atom:   86    charge:    2.7027    magn:   -0.0003    constr:    0.0000
     atom:   87    charge:    2.7017    magn:   -0.0004    constr:    0.0000
     atom:   88    charge:    2.7019    magn:    0.0001    constr:    0.0000
     atom:   89    charge:    2.7072    magn:   -0.0057    constr:    0.0000
     atom:   90    charge:    2.7038    magn:   -0.0008    constr:    0.0000
     atom:   91    charge:    2.7059    magn:   -0.0007    constr:    0.0000
     atom:   92    charge:    2.7092    magn:   -0.0010    constr:    0.0000
     atom:   93    charge:    2.7032    magn:   -0.0011    constr:    0.0000
     atom:   94    charge:    2.7058    magn:   -0.0003    constr:    0.0000
     atom:   95    charge:    2.7066    magn:   -0.0004    constr:    0.0000
     atom:   96    charge:    2.7080    magn:   -0.0007    constr:    0.0000
     atom:   97    charge:    2.7029    magn:    0.0023    constr:    0.0000
     atom:   98    charge:    2.7079    magn:   -0.0008    constr:    0.0000

     total cpu time spent up to now is     6049.1 secs

     End of self-consistent calculation

 ------ SPIN UP ------------


          k = 0.0000 0.0000 0.0000 ( 77468 PWs)   bands (ev):

   -21.7768 -21.5580 -21.4014 -21.3914 -21.3776 -21.3038 -21.2535 -20.8386
   -20.6620 -20.6424 -20.6288 -20.5524 -20.5397 -20.4226 -20.2923 -20.2914
   -20.2623 -20.1145 -20.1046 -19.5623 -19.4160 -19.4051 -19.3996 -19.3947
   -19.3850 -19.3768 -19.3601 -19.3138 -19.3079 -19.1663 -19.1623 -19.0356
   -18.9741 -18.9735 -18.9314 -18.7714 -18.7601 -18.5480 -18.5439 -18.5239
   -18.5114 -18.4703 -18.4195 -18.4004 -18.3687 -18.3463 -18.3288 -16.7252
   -14.8805 -13.1226 -12.7794 -12.7729 -12.7527 -12.7258 -12.7200 -12.6572
   -12.5685 -12.5362 -12.5261 -12.4808 -12.4103 -12.1539 -12.0707 -12.0569
   -12.0322 -11.9827 -11.9419 -11.5578 -11.4154 -11.4081 -11.3959 -11.3928
   -11.3751 -11.3647 -11.3630 -11.3124 -11.3004 -11.0924 -11.0476 -10.8741
   -10.7277 -10.7153 -10.6753 -10.6538 -10.5064 -10.0676 -10.0312 -10.0049
    -9.9362  -9.8812  -9.8203  -9.3971  -9.3233  -9.3140  -9.3136  -9.2937
    -9.2821  -9.2273  -9.0525  -8.9391  -8.9139  -8.9137  -8.9063  -8.8996
    -8.8909  -8.8812  -8.8793  -8.8660  -8.8362  -8.8311  -8.8269  -8.8239
    -8.8130  -8.7999  -8.7941  -8.7526  -8.7277  -8.6722  -8.6597  -8.6445
    -8.4770  -8.4571  -8.2211  -8.1970  -8.1960  -8.0972  -8.0768  -7.8996
    -7.8637  -7.8314  -7.8145  -7.8074  -7.7290  -7.7204  -7.5578  -7.5069
    -7.5041  -7.4792  -7.4583  -7.4460  -7.4321  -7.4037  -7.4015  -7.3421
    -7.3405  -7.3378  -7.3084  -7.2778  -7.2213  -7.2162  -7.2087  -7.0331
    -7.0310  -7.0021  -6.9003  -6.8238  -6.6592  -6.5466  -6.2133  -6.1957
    -6.1853  -6.1550  -6.0824  -6.0751  -6.0733  -6.0659  -6.0620  -6.0563
    -6.0464  -6.0338  -5.9963  -5.9817  -5.8693  -5.8228  -5.8087  -5.7093
    -5.5234  -5.4539  -5.4477  -5.4202  -5.3247  -5.2572  -5.1078  -5.0495
    -4.7868  -4.7846  -4.7594  -4.7543  -4.6737  -4.6732  -4.5655  -4.5197
    -4.5028  -4.4971  -4.2569  -3.4554  -0.0190   0.1766   0.6790   0.6808
     0.7075   0.7086   0.7202   0.7203   0.7742   0.7915   0.8044   0.8047
     0.8097   0.8278   0.8297   0.8513   0.8533   0.8980   0.9151   0.9227
     0.9253   1.1169   1.1998   1.2121   1.2321   1.2427   1.2916   1.3161
     1.3216   1.3258   1.3422   1.3566   1.3970   1.4356   1.4384   1.4412
     1.4524   1.4609   1.4874   1.8841   2.0871   2.0939   2.0945   2.1072
     2.1125   2.1256   2.1389   2.2090   2.2718

 ------ SPIN DOWN ----------


          k = 0.0000 0.0000 0.0000 ( 77468 PWs)   bands (ev):

   -21.7918 -21.5921 -21.4021 -21.3931 -21.3805 -21.3039 -21.2668 -20.8612
   -20.6676 -20.6529 -20.6234 -20.5527 -20.5433 -20.4299 -20.2947 -20.2896
   -20.2796 -20.1148 -20.1056 -19.5805 -19.4226 -19.4093 -19.4027 -19.3981
   -19.3875 -19.3765 -19.3699 -19.3267 -19.3015 -19.1732 -19.1703 -19.0402
   -18.9766 -18.9745 -18.9488 -18.7664 -18.7662 -18.5555 -18.5476 -18.5310
   -18.5210 -18.4750 -18.4288 -18.4059 -18.3710 -18.3508 -18.3439 -16.5621
   -14.6391 -13.0368 -12.7769 -12.7677 -12.7495 -12.7223 -12.7179 -12.6478
   -12.5665 -12.5297 -12.5233 -12.4611 -12.3983 -12.1460 -12.0688 -12.0556
   -12.0267 -11.9729 -11.9337 -11.5391 -11.4130 -11.4032 -11.3948 -11.3879
   -11.3743 -11.3636 -11.3611 -11.3068 -11.2894 -11.0671 -11.0238 -10.8619
   -10.7257 -10.7122 -10.6725 -10.6356 -10.4840 -10.0637 -10.0246 -10.0045
    -9.9271  -9.8715  -9.8073  -9.3955  -9.3177  -9.3138  -9.3037  -9.2917
    -9.2805  -9.2238  -9.0502  -8.9450  -8.9155  -8.9115  -8.9084  -8.8963
    -8.8917  -8.8882  -8.8795  -8.8630  -8.8342  -8.8309  -8.8249  -8.8214
    -8.8166  -8.7960  -8.7950  -8.7371  -8.7206  -8.6422  -8.6277  -8.6260
    -8.4633  -8.4376  -8.2222  -8.1975  -8.1958  -8.0742  -8.0703  -7.9229
    -7.8532  -7.8372  -7.8259  -7.7886  -7.7131  -7.6900  -7.5524  -7.5123
    -7.5030  -7.4768  -7.4572  -7.4512  -7.4448  -7.4046  -7.4027  -7.3432
    -7.3393  -7.3284  -7.3220  -7.2780  -7.2132  -7.1578  -7.1561  -7.0329
    -7.0291  -7.0022  -6.8608  -6.7984  -6.6431  -6.5220  -6.2379  -6.1938
    -6.1887  -6.1574  -6.0909  -6.0801  -6.0697  -6.0668  -6.0577  -6.0508
    -6.0428  -6.0407  -6.0138  -5.9589  -5.8152  -5.8088  -5.7863  -5.6865
    -5.5284  -5.4496  -5.4492  -5.4348  -5.2581  -5.2159  -5.0629  -4.9800
    -4.8016  -4.7891  -4.7778  -4.7650  -4.6770  -4.6574  -4.5697  -4.5188
    -4.5118  -4.5060  -4.1837  -2.8883   0.1834   0.4906   0.6992   0.7134
     0.7137   0.7325   0.7476   0.7482   0.7910   0.8031   0.8052   0.8074
     0.8111   0.8351   0.8541   0.8617   0.8860   0.9026   0.9468   0.9542
     1.0490   1.1656   1.2219   1.2575   1.2759   1.3157   1.3207   1.3256
     1.3372   1.3448   1.3494   1.3741   1.4217   1.4333   1.4359   1.4388
     1.4498   1.4591   1.4924   1.8870   2.0954   2.1000   2.1109   2.1215
     2.1442   2.1561   2.1564   2.2130   2.2929

     highest occupied, lowest unoccupied level (ev):    -4.1837   -4.2569

!    total energy              =   -1940.16880710 Ry
     Harris-Foulkes estimate   =   -1940.16880711 Ry
     estimated scf accuracy    <          3.2E-13 Ry

     total all-electron energy =     -7769.993284 Ry

     The total energy is the sum of the following terms:

     one-electron contribution =  -10644.54410347 Ry
     hartree contribution      =    5407.86035860 Ry
     xc contribution           =    -430.66113632 Ry
     ewald contribution        =    4370.62449003 Ry
     DFT-D3 Dispersion         =      -0.27013821 Ry
     one-center paw contrib.   =    -643.17827772 Ry

     total magnetization       =     1.00 Bohr mag/cell
     absolute magnetization    =     2.40 Bohr mag/cell

     convergence has been achieved in  26 iterations

     negative rho (up, down):  4.803E-01 1.388E-02

     Forces acting on atoms (cartesian axes, Ry/au):

     atom    1 type  1   force =    -0.00000015    0.00000372    0.00000000
     atom    2 type  1   force =     0.00000236   -0.00000119    0.00000000
     atom    3 type  1   force =     0.00000880    0.00000609    0.00000000
     atom    4 type  1   force =     0.00000311    0.00000551    0.00000000
     atom    5 type  1   force =     0.00000123   -0.00000711    0.00000000
     atom    6 type  1   force =    -0.00000173   -0.00000993    0.00000000
     atom    7 type  1   force =     0.00000225   -0.00000146    0.00000000
     atom    8 type  1   force =     0.00000046    0.00000750    0.00000000
     atom    9 type  1   force =    -0.00000091    0.00000138    0.00000000
     atom   10 type  1   force =    -0.00000489   -0.00000221    0.00000000
     atom   11 type  1   force =     0.00000270    0.00000966    0.00000000
     atom   12 type  1   force =     0.00000340    0.00000173    0.00000000
     atom   13 type  1   force =     0.00000143   -0.00000095    0.00000000
     atom   14 type  1   force =     0.00000766    0.00000633    0.00000000
     atom   15 type  1   force =     0.00001167    0.00001549    0.00000000
     atom   16 type  1   force =     0.00000860    0.00001209    0.00000000
     atom   17 type  1   force =    -0.00000480   -0.00000134    0.00000000
     atom   18 type  1   force =    -0.00000283   -0.00000065    0.00000000
     atom   19 type  1   force =    -0.00000320    0.00000183    0.00000000
     atom   20 type  1   force =     0.00000015   -0.00000399    0.00000000
     atom   21 type  1   force =     0.00000670    0.00000246    0.00000000
     atom   22 type  1   force =     0.00000278    0.00000763    0.00000000
     atom   23 type  1   force =     0.00000769    0.00001312    0.00000000
     atom   24 type  1   force =     0.00000637    0.00001081    0.00000000
     atom   25 type  4   force =    -0.00000730    0.00000432    0.00000000
     atom   26 type  1   force =    -0.00000083    0.00000282    0.00000000
     atom   27 type  1   force =    -0.00000697   -0.00000723    0.00000000
     atom   28 type  1   force =    -0.00000318   -0.00000550    0.00000000
     atom   29 type  1   force =    -0.00000316   -0.00000098    0.00000000
     atom   30 type  1   force =    -0.00000244    0.00000237    0.00000000
     atom   31 type  1   force =     0.00000346   -0.00000198    0.00000000
     atom   32 type  1   force =    -0.00000617   -0.00001080    0.00000000
     atom   33 type  1   force =    -0.00000106    0.00000488    0.00000000
     atom   34 type  1   force =    -0.00000047    0.00000522    0.00000000
     atom   35 type  1   force =    -0.00000082   -0.00001080    0.00000000
     atom   36 type  1   force =    -0.00000363   -0.00000588    0.00000000
     atom   37 type  1   force =    -0.00000471    0.00000278    0.00000000
     atom   38 type  1   force =    -0.00000322    0.00000088    0.00000000
     atom   39 type  1   force =    -0.00000750   -0.00001308    0.00000000
     atom   40 type  1   force =    -0.00000613   -0.00001336    0.00000000
     atom   41 type  1   force =    -0.00000151   -0.00000006    0.00000000
     atom   42 type  1   force =     0.00000230   -0.00000152    0.00000000
     atom   43 type  1   force =    -0.00000059    0.00000043    0.00000000
     atom   44 type  1   force =     0.00000338    0.00000624    0.00000000
     atom   45 type  1   force =    -0.00000062    0.00000332    0.00000000
     atom   46 type  1   force =    -0.00000501   -0.00000617    0.00000000
     atom   47 type  1   force =    -0.00000758   -0.00001774    0.00000000
     atom   48 type  1   force =    -0.00000635   -0.00000428    0.00000000
     atom   49 type  1   force =    -0.00000328   -0.00000182    0.00000000
     atom   50 type  2   force =     0.00000043   -0.00000624    0.00000000
     atom   51 type  2   force =     0.00000267   -0.00000642    0.00000000
     atom   52 type  2   force =     0.00000664   -0.00000038    0.00000000
     atom   53 type  2   force =     0.00000669   -0.00000056    0.00000000
     atom   54 type  2   force =    -0.00000090    0.00000077    0.00000000
     atom   55 type  2   force =    -0.00000442    0.00000071    0.00000000
     atom   56 type  2   force =    -0.00000004    0.00000015    0.00000000
     atom   57 type  2   force =    -0.00000244    0.00000044    0.00000000
     atom   58 type  2   force =    -0.00000183   -0.00000067    0.00000000
     atom   59 type  2   force =     0.00000279    0.00000510    0.00000000
     atom   60 type  2   force =     0.00000736    0.00000321    0.00000000
     atom   61 type  2   force =     0.00000956    0.00000085    0.00000000
     atom   62 type  2   force =    -0.00000385    0.00000230    0.00000000
     atom   63 type  2   force =    -0.00000277    0.00000363    0.00000000
     atom   64 type  2   force =    -0.00000299    0.00000345    0.00000000
     atom   65 type  2   force =    -0.00000250    0.00000284    0.00000000
     atom   66 type  2   force =    -0.00000337    0.00000445    0.00000000
     atom   67 type  3   force =    -0.00000408    0.00000342    0.00000000
     atom   68 type  2   force =     0.00001085   -0.00000628    0.00000000
     atom   69 type  2   force =     0.00000402   -0.00000864    0.00000000
     atom   70 type  2   force =    -0.00000110    0.00000049    0.00000000
     atom   71 type  2   force =    -0.00000342    0.00000467    0.00000000
     atom   72 type  2   force =    -0.00000079    0.00000632    0.00000000
     atom   73 type  2   force =    -0.00000314    0.00000305    0.00000000
     atom   74 type  2   force =    -0.00000576    0.00000330    0.00000000
     atom   75 type  5   force =    -0.00000507    0.00000171    0.00000000
     atom   76 type  2   force =     0.00000088   -0.00000800    0.00000000
     atom   77 type  2   force =     0.00000375   -0.00000541    0.00000000
     atom   78 type  2   force =     0.00000301    0.00000010    0.00000000
     atom   79 type  2   force =     0.00000176   -0.00000012    0.00000000
     atom   80 type  2   force =    -0.00000080    0.00000047    0.00000000
     atom   81 type  2   force =    -0.00000419    0.00000112    0.00000000
     atom   82 type  2   force =    -0.00000572    0.00000058    0.00000000
     atom   83 type  2   force =    -0.00000317   -0.00000494    0.00000000
     atom   84 type  2   force =     0.00000359   -0.00000544    0.00000000
     atom   85 type  2   force =     0.00000639   -0.00000053    0.00000000
     atom   86 type  2   force =     0.00000551   -0.00000326    0.00000000
     atom   87 type  2   force =     0.00000082   -0.00000151    0.00000000
     atom   88 type  2   force =    -0.00000596   -0.00000251    0.00000000
     atom   89 type  2   force =    -0.00000371    0.00000057    0.00000000
     atom   90 type  2   force =    -0.00000044    0.00000193    0.00000000
     atom   91 type  2   force =     0.00000679    0.00000105    0.00000000
     atom   92 type  2   force =     0.00000454   -0.00000259    0.00000000
     atom   93 type  2   force =     0.00000368   -0.00000536    0.00000000
     atom   94 type  2   force =     0.00000143   -0.00000268    0.00000000
     atom   95 type  2   force =    -0.00000585    0.00000063    0.00000000
     atom   96 type  2   force =    -0.00000453    0.00000083    0.00000000
     atom   97 type  2   force =    -0.00000148    0.00000191    0.00000000
     atom   98 type  2   force =     0.00000571    0.00000292    0.00000000

     Total force =     0.000071     Total SCF correction =     0.000001


     Computing stress (Cartesian axis) and pressure


     negative rho (up, down):  4.803E-01 1.388E-02
          total   stress  (Ry/bohr**3)                   (kbar)     P=   -0.16
   0.00000001  -0.00000000   0.00000000          0.00     -0.00      0.00
  -0.00000000   0.00000001   0.00000000         -0.00      0.00      0.00
   0.00000000   0.00000000  -0.00000334          0.00      0.00     -0.49


     Writing output data file C2Cn.save/
 
     init_run     :      9.46s CPU      9.82s WALL (       2 calls)
     electrons    :   5696.16s CPU   5788.50s WALL (      11 calls)
     update_pot   :     31.04s CPU     31.31s WALL (       9 calls)
     forces       :     42.15s CPU     43.64s WALL (      11 calls)
     stress       :    133.73s CPU    134.95s WALL (      11 calls)

     Called by init_run:
     wfcinit      :      3.63s CPU      3.83s WALL (       2 calls)
     potinit      :      2.06s CPU      2.11s WALL (       2 calls)
     hinit0       :      2.78s CPU      2.82s WALL (       2 calls)

     Called by electrons:
     c_bands      :   5514.95s CPU   5596.14s WALL (     157 calls)
     sum_band     :     94.59s CPU     97.96s WALL (     157 calls)
     v_of_rho     :     29.94s CPU     30.95s WALL (     159 calls)
     newd         :     11.02s CPU     12.60s WALL (     159 calls)
     PAW_pot      :     34.00s CPU     34.37s WALL (     168 calls)
     mix_rho      :      2.69s CPU      2.98s WALL (     157 calls)

     Called by c_bands:
     init_us_2    :      6.00s CPU      6.15s WALL (     694 calls)
     rcgdiagg     :   5345.41s CPU   5400.04s WALL (     339 calls)
     wfcrot       :    167.79s CPU    171.79s WALL (     303 calls)

     Called by sum_band:
     sum_band:bec :      0.22s CPU      0.23s WALL (     332 calls)
     addusdens    :     10.40s CPU     12.42s WALL (     157 calls)

     Called by *cgdiagg:
     h_psi        :   2779.37s CPU   2809.48s WALL (  237767 calls)
     s_psi        :   1571.25s CPU   1586.48s WALL (  475231 calls)
     rdiaghg      :      5.54s CPU      5.79s WALL (     303 calls)

     Called by h_psi:
     h_psi:pot    :   2776.27s CPU   2806.33s WALL (  237767 calls)
     h_psi:calbec :    966.53s CPU    976.40s WALL (  237767 calls)
     vloc_psi     :    979.22s CPU    993.10s WALL (  237767 calls)
     add_vuspsi   :    827.47s CPU    834.39s WALL (  237767 calls)
     hs_1psi      :   3423.73s CPU   3458.88s WALL (  237464 calls)
     s_1psi       :   1610.63s CPU   1625.28s WALL (  237464 calls)

     General routines
     calbec       :   1801.58s CPU   1820.48s WALL (  475673 calls)
     fft          :     25.75s CPU     26.20s WALL (    3071 calls)
     ffts         :      1.24s CPU      1.27s WALL (     314 calls)
     fftw         :    927.23s CPU    940.36s WALL (  588672 calls)
 
     Parallel routines
     fft_scatt_xy :     87.84s CPU     88.82s WALL (  592057 calls)
     fft_scatt_yz :    277.40s CPU    282.35s WALL (  592057 calls)
 
     PWSCF        :      1h38m CPU      1h41m WALL

 
   This run was terminated on:  23:17:42   1Jul2021            

=------------------------------------------------------------------------------=
   JOB DONE.
=------------------------------------------------------------------------------=
