
     Program PWSCF v.6.4.1 starts on 21Sep2021 at  6: 3:12 

     This program is part of the open-source Quantum ESPRESSO suite
     for quantum simulation of materials; please cite
         "P. Giannozzi et al., J. Phys.:Condens. Matter 21 395502 (2009);
         "P. Giannozzi et al., J. Phys.:Condens. Matter 29 465901 (2017);
          URL http://www.quantum-espresso.org", 
     in publications or presentations arising from this work. More details at
     http://www.quantum-espresso.org/quote

     Parallel version (MPI), running on    64 processors

     MPI processes distributed on     2 nodes
     R & G space division:  proc/nbgrp/npool/nimage =      64
     Waiting for input...
     Reading input from standard input

     Current dimensions of program PWSCF are:
     Max number of different atomic species (ntypx) = 10
     Max number of k-points (npk) =  40000
     Max angular momentum in pseudopotentials (lmaxx) =  3

     IMPORTANT: XC functional enforced from input :
     Exchange-correlation      = HSE ( 1  4 12  4 0 0)
     EXX-fraction              =        0.25
     Using LIBXC version       =    4   3   4
     Any further DFT definition will be discarded
     Please, verify this is what you really want

               file N.pbe-n-kjpaw_psl.1.0.0.UPF: wavefunction(s)  2S renormalized
               file C.pbe-n-kjpaw_psl.1.0.0.UPF: wavefunction(s)  2S 2P renormalized
               file C.pbe-n-kjpaw_psl.1.0.0.UPF: wavefunction(s)  2S 2P renormalized
               file C.pbe-n-kjpaw_psl.1.0.0.UPF: wavefunction(s)  2S 2P renormalized
     EXX fraction changed:   0.32
     EXX Screening parameter changed:    0.0455000

     --------------------------------------------
     Parameters for DFT-D3 Dispersion Correction:
     --------------------------------------------
       Reference C6 values for interpolation: 

         atom   Coordination number   C6
         B          0.000           214.36
         B          0.971           150.74
         B          1.944           106.23
         B          2.913            62.89
         B          4.586            56.06
         C1         0.000            98.23
         C1         0.987            86.49
         C1         1.998            58.72
         C1         2.999            51.56
         C1         3.984            36.41
         C2         0.000            98.23
         C2         0.987            86.49
         C2         1.998            58.72
         C2         2.999            51.56
         C2         3.984            36.41
         C3         0.000            98.23
         C3         0.987            86.49
         C3         1.998            58.72
         C3         2.999            51.56
         C3         3.984            36.41
         N          0.000            50.54
         N          0.994            44.25
         N          2.014            39.35
         N          2.990            31.16

       Values used:

         atom   Coordination number  R0_AB[au]  C6      C8
         B          3.325            3.039     62.90   2506.24
         B          3.317            3.039     62.90   2506.44
         B          3.317            3.039     62.90   2506.43
         B          3.325            3.039     62.90   2506.25
         B          3.327            3.039     62.90   2506.21
         B          3.324            3.039     62.90   2506.27
         B          3.326            3.039     62.90   2506.22
         B          3.325            3.039     62.90   2506.26
         B          3.323            3.039     62.90   2506.30
         B          3.303            3.039     62.91   2506.76
         B          3.322            3.039     62.90   2506.33
         B          3.329            3.039     62.90   2506.15
         B          3.325            3.039     62.90   2506.24
         B          3.324            3.039     62.90   2506.27
         B          3.325            3.039     62.90   2506.26
         B          3.327            3.039     62.90   2506.21
         B          3.297            3.039     62.91   2506.88
         B          3.297            3.039     62.91   2506.90
         B          3.336            3.039     62.89   2505.99
         B          3.329            3.039     62.90   2506.15
         B          3.327            3.039     62.90   2506.21
         B          3.323            3.039     62.90   2506.31
         B          3.319            3.039     62.90   2506.40
         B          3.314            3.039     62.90   2506.51
         C2         3.249            2.750     49.43   1429.56
         B          3.297            3.039     62.91   2506.90
         B          3.322            3.039     62.90   2506.33
         B          3.325            3.039     62.90   2506.25
         B          3.321            3.039     62.90   2506.36
         B          3.319            3.039     62.90   2506.39
         B          3.315            3.039     62.90   2506.50
         B          3.314            3.039     62.90   2506.51
         B          3.297            3.039     62.91   2506.88
         B          3.303            3.039     62.91   2506.76
         B          3.317            3.039     62.90   2506.43
         B          3.316            3.039     62.90   2506.45
         B          3.318            3.039     62.90   2506.42
         B          3.319            3.039     62.90   2506.39
         B          3.319            3.039     62.90   2506.40
         B          3.327            3.039     62.90   2506.21
         B          3.323            3.039     62.90   2506.30
         B          3.317            3.039     62.90   2506.44
         B          3.319            3.039     62.90   2506.40
         B          3.316            3.039     62.90   2506.45
         B          3.321            3.039     62.90   2506.36
         B          3.323            3.039     62.90   2506.31
         B          3.325            3.039     62.90   2506.26
         B          3.325            3.039     62.90   2506.26
         B          3.325            3.039     62.90   2506.24
         N          3.129            2.478     31.22    688.74
         N          3.128            2.478     31.22    688.75
         N          3.125            2.478     31.22    688.79
         N          3.128            2.478     31.22    688.75
         N          3.130            2.478     31.22    688.73
         N          3.129            2.478     31.22    688.75
         N          3.129            2.478     31.22    688.75
         N          3.129            2.478     31.22    688.75
         N          3.129            2.478     31.22    688.74
         N          3.124            2.478     31.22    688.79
         N          3.123            2.478     31.22    688.80
         N          3.132            2.478     31.22    688.72
         N          3.130            2.478     31.22    688.74
         N          3.129            2.478     31.22    688.75
         N          3.130            2.478     31.22    688.74
         N          3.129            2.478     31.22    688.74
         N          3.132            2.478     31.22    688.71
         C1         3.192            2.750     50.14   1450.24
         N          3.134            2.478     31.22    688.70
         N          3.132            2.478     31.22    688.72
         N          3.130            2.478     31.22    688.73
         N          3.129            2.478     31.22    688.75
         N          3.127            2.478     31.22    688.76
         N          3.126            2.478     31.22    688.78
         N          3.155            2.478     31.21    688.52
         C3         3.192            2.750     50.14   1450.24
         N          3.123            2.478     31.22    688.80
         N          3.128            2.478     31.22    688.75
         N          3.127            2.478     31.22    688.77
         N          3.127            2.478     31.22    688.76
         N          3.127            2.478     31.22    688.77
         N          3.126            2.478     31.22    688.78
         N          3.132            2.478     31.22    688.71
         N          3.124            2.478     31.22    688.79
         N          3.125            2.478     31.22    688.79
         N          3.126            2.478     31.22    688.77
         N          3.126            2.478     31.22    688.77
         N          3.127            2.478     31.22    688.76
         N          3.127            2.478     31.22    688.76
         N          3.129            2.478     31.22    688.74
         N          3.129            2.478     31.22    688.74
         N          3.128            2.478     31.22    688.75
         N          3.129            2.478     31.22    688.74
         N          3.126            2.478     31.22    688.77
         N          3.127            2.478     31.22    688.77
         N          3.129            2.478     31.22    688.75
         N          3.130            2.478     31.22    688.74
         N          3.129            2.478     31.22    688.75
         N          3.129            2.478     31.22    688.74

         Molecular C6 ( Ry / a.u.^6 ) =    437698.51


     gamma-point specific algorithms are used
     Message from routine setup :
     BEWARE: nonlinear core correction is not consistent with hybrid XC

     Subspace diagonalization in iterative solution of the eigenvalue problem:
     one sub-group per band group will be used
     scalapack distributed-memory algorithm (size of sub-group:  5*  5 procs)

     EXX: grid of k+q points same as grid of k-points
 
     Parallelization info
     --------------------
     sticks:   dense  smooth     PW     G-vecs:    dense   smooth      PW
     Min          70      70     16                 4422     4422     540
     Max          72      72     18                 4448     4448     562
     Sum        4547    4547   1147               283743   283743   35513
 


     bravais-lattice index     =            0
     lattice parameter (alat)  =      33.2346  a.u.
     unit-cell volume          =   36184.4017 (a.u.)^3
     number of atoms/cell      =           98
     number of atomic types    =            5
     number of electrons       =       391.00
     number of Kohn-Sham states=          245
     kinetic-energy cutoff     =      15.0000  Ry
     charge density cutoff     =      60.0000  Ry
     cutoff for Fock operator  =      60.0000  Ry
     convergence threshold     =      1.0E-06
     mixing beta               =       0.7000
     number of iterations used =            8  plain     mixing
     Exchange-correlation      = HSE ( 1  4 12  4 0 0)
     EXX-fraction              =        0.32
     Using LIBXC version       =    4   3   4

     celldm(1)=  33.234611  celldm(2)=   0.000000  celldm(3)=   0.000000
     celldm(4)=   0.000000  celldm(5)=   0.000000  celldm(6)=   0.000000

     crystal axes: (cart. coord. in units of alat)
               a(1) = (   1.000640  -0.000349   0.000000 )  
               a(2) = (  -0.500622   0.866405   0.000000 )  
               a(3) = (   0.000000   0.000000   1.137204 )  

     reciprocal axes: (cart. coord. in units 2 pi/alat)
               b(1) = (  0.999562  0.577562  0.000000 )  
               b(2) = (  0.000402  1.154427  0.000000 )  
               b(3) = (  0.000000  0.000000  0.879350 )  


     PseudoPot. # 1 for B  read from file:
     ./pseudo/B.pbe-n-kjpaw_psl.1.0.0.UPF
     MD5 check sum: 8c825a5969375aca5c2c6ad5945b3059
     Pseudo is Projector augmented-wave + core cor, Zval =  3.0
     Generated using "atomic" code by A. Dal Corso v.6.3
     Shape of augmentation charge: PSQ
     Using radial grid of 1059 points,  4 beta functions with: 
                l(1) =   0
                l(2) =   0
                l(3) =   1
                l(4) =   1
     Q(r) pseudized with 0 coefficients 


     PseudoPot. # 2 for N  read from file:
     ./pseudo/N.pbe-n-kjpaw_psl.1.0.0.UPF
     MD5 check sum: 14c48229446f9f2d411169a3abcbc3fa
     Pseudo is Projector augmented-wave + core cor, Zval =  5.0
     Generated using "atomic" code by A. Dal Corso v.6.3
     Shape of augmentation charge: PSQ
     Using radial grid of 1085 points,  4 beta functions with: 
                l(1) =   0
                l(2) =   0
                l(3) =   1
                l(4) =   1
     Q(r) pseudized with 0 coefficients 


     PseudoPot. # 3 for C  read from file:
     ./pseudo/C.pbe-n-kjpaw_psl.1.0.0.UPF
     MD5 check sum: 5f16ad9a65e90284d1d834d4ab3b0f7d
     Pseudo is Projector augmented-wave + core cor, Zval =  4.0
     Generated using "atomic" code by A. Dal Corso v.6.3
     Shape of augmentation charge: PSQ
     Using radial grid of 1073 points,  4 beta functions with: 
                l(1) =   0
                l(2) =   0
                l(3) =   1
                l(4) =   1
     Q(r) pseudized with 0 coefficients 


     PseudoPot. # 4 for C  read from file:
     ./pseudo/C.pbe-n-kjpaw_psl.1.0.0.UPF
     MD5 check sum: 5f16ad9a65e90284d1d834d4ab3b0f7d
     Pseudo is Projector augmented-wave + core cor, Zval =  4.0
     Generated using "atomic" code by A. Dal Corso v.6.3
     Shape of augmentation charge: PSQ
     Using radial grid of 1073 points,  4 beta functions with: 
                l(1) =   0
                l(2) =   0
                l(3) =   1
                l(4) =   1
     Q(r) pseudized with 0 coefficients 


     PseudoPot. # 5 for C  read from file:
     ./pseudo/C.pbe-n-kjpaw_psl.1.0.0.UPF
     MD5 check sum: 5f16ad9a65e90284d1d834d4ab3b0f7d
     Pseudo is Projector augmented-wave + core cor, Zval =  4.0
     Generated using "atomic" code by A. Dal Corso v.6.3
     Shape of augmentation charge: PSQ
     Using radial grid of 1073 points,  4 beta functions with: 
                l(1) =   0
                l(2) =   0
                l(3) =   1
                l(4) =   1
     Q(r) pseudized with 0 coefficients 


     atomic species   valence    mass     pseudopotential
        B              3.00    10.00000     B ( 1.00)
        N              5.00    14.00000     N ( 1.00)
        C1             4.00    12.00000     C ( 1.00)
        C2             4.00    12.00000     C ( 1.00)
        C3             4.00    12.00000     C ( 1.00)

     Starting magnetic structure 
     atomic species   magnetization
        B            0.000
        N            0.000
        C1           1.000
        C2           0.000
        C3           0.000

     No symmetry found



   Cartesian axes

     site n.     atom                  positions (alat units)
         1           B   tau(   1) = (  -0.0000233   0.0821617   0.5686018  )
         2           B   tau(   2) = (  -0.0713866   0.2062009   0.5686018  )
         3           B   tau(   3) = (  -0.1430783   0.3301031   0.5686018  )
         4           B   tau(   4) = (  -0.2149375   0.4537632   0.5686018  )
         5           B   tau(   5) = (  -0.2861755   0.5775434   0.5686018  )
         6           B   tau(   6) = (  -0.3574872   0.7014372   0.5686018  )
         7           B   tau(   7) = (  -0.4290711   0.8250953   0.5686018  )
         8           B   tau(   8) = (   0.1428779   0.0818580   0.5686018  )
         9           B   tau(   9) = (   0.0712222   0.2053694   0.5686018  )
        10           B   tau(  10) = (   0.0002327   0.3301362   0.5686018  )
        11           B   tau(  11) = (  -0.0725304   0.4539838   0.5686018  )
        12           B   tau(  12) = (  -0.1441451   0.5777657   0.5686018  )
        13           B   tau(  13) = (  -0.2149187   0.7014543   0.5686018  )
        14           B   tau(  14) = (  -0.2861881   0.8249309   0.5686018  )
        15           B   tau(  15) = (   0.2862131   0.0818140   0.5686018  )
        16           B   tau(  16) = (   0.2148456   0.2045690   0.5686018  )
        17           B   tau(  17) = (   0.1436176   0.3272083   0.5686018  )
        18           B   tau(  18) = (   0.0696289   0.4562046   0.5686018  )
        19           B   tau(  19) = (  -0.0025925   0.5788678   0.5686018  )
        20           B   tau(  20) = (  -0.0724144   0.7020070   0.5686018  )
        21           B   tau(  21) = (  -0.1432370   0.8251201   0.5686018  )
        22           B   tau(  22) = (   0.4289841   0.0823577   0.5686018  )
        23           B   tau(  23) = (   0.3574544   0.2061244   0.5686018  )
        24           B   tau(  24) = (   0.2853662   0.3296798   0.5686018  )
        25           C2  tau(  25) = (   0.2152526   0.4530948   0.5686018  )
        26           B   tau(  26) = (   0.1397476   0.5776538   0.5686018  )
        27           B   tau(  27) = (   0.0705912   0.7018778   0.5686018  )
        28           B   tau(  28) = (  -0.0004212   0.8253162   0.5686018  )
        29           B   tau(  29) = (   0.5717760   0.0822445   0.5686018  )
        30           B   tau(  30) = (   0.5003561   0.2060412   0.5686018  )
        31           B   tau(  31) = (   0.4287233   0.3298475   0.5686018  )
        32           B   tau(  32) = (   0.3571899   0.4540822   0.5686018  )
        33           B   tau(  33) = (   0.2884561   0.5780758   0.5686018  )
        34           B   tau(  34) = (   0.2142280   0.7007869   0.5686018  )
        35           B   tau(  35) = (   0.1426011   0.8249144   0.5686018  )
        36           B   tau(  36) = (   0.7147681   0.0821485   0.5686018  )
        37           B   tau(  37) = (   0.6432419   0.2059952   0.5686018  )
        38           B   tau(  38) = (   0.5717591   0.3297149   0.5686018  )
        39           B   tau(  39) = (   0.5002362   0.4534298   0.5686018  )
        40           B   tau(  40) = (   0.4302789   0.5777103   0.5686018  )
        41           B   tau(  41) = (   0.3577740   0.7016916   0.5686018  )
        42           B   tau(  42) = (   0.2857495   0.8247786   0.5686018  )
        43           B   tau(  43) = (   0.8578476   0.0820925   0.5686018  )
        44           B   tau(  44) = (   0.7862593   0.2059749   0.5686018  )
        45           B   tau(  45) = (   0.7146801   0.3297618   0.5686018  )
        46           B   tau(  46) = (   0.6431861   0.4533666   0.5686018  )
        47           B   tau(  47) = (   0.5722715   0.5772817   0.5686018  )
        48           B   tau(  48) = (   0.5005658   0.7013916   0.5686018  )
        49           B   tau(  49) = (   0.4288522   0.8249958   0.5686018  )
        50           N   tau(  50) = (   0.0714331   0.0409759   0.5686018  )
        51           N   tau(  51) = (  -0.0001876   0.1644906   0.5686018  )
        52           N   tau(  52) = (  -0.0713557   0.2888776   0.5686018  )
        53           N   tau(  53) = (  -0.1436341   0.4125195   0.5686018  )
        54           N   tau(  54) = (  -0.2151393   0.5362333   0.5686018  )
        55           N   tau(  55) = (  -0.2862233   0.6600795   0.5686018  )
        56           N   tau(  56) = (  -0.3576342   0.7838513   0.5686018  )
        57           N   tau(  57) = (   0.2145160   0.0409095   0.5686018  )
        58           N   tau(  58) = (   0.1429488   0.1642146   0.5686018  )
        59           N   tau(  59) = (   0.0713660   0.2876061   0.5686018  )
        60           N   tau(  60) = (  -0.0007870   0.4130708   0.5686018  )
        61           N   tau(  61) = (  -0.0731783   0.5365814   0.5686018  )
        62           N   tau(  62) = (  -0.1436888   0.6603299   0.5686018  )
        63           N   tau(  63) = (  -0.2147393   0.7838935   0.5686018  )
        64           N   tau(  64) = (   0.3576142   0.0410192   0.5686018  )
        65           N   tau(  65) = (   0.2863754   0.1641474   0.5686018  )
        66           N   tau(  66) = (   0.2150130   0.2867948   0.5686018  )
        67           C1  tau(  67) = (   0.1457790   0.4134614   0.5686018  )
        68           N   tau(  68) = (   0.0679304   0.5381514   0.5686018  )
        69           N   tau(  69) = (  -0.0012643   0.6611402   0.5686018  )
        70           N   tau(  70) = (  -0.0719434   0.7842561   0.5686018  )
        71           N   tau(  71) = (   0.5003317   0.0412613   0.5686018  )
        72           N   tau(  72) = (   0.4288916   0.1649165   0.5686018  )
        73           N   tau(  73) = (   0.3571532   0.2888803   0.5686018  )
        74           N   tau(  74) = (   0.2850449   0.4128002   0.5686018  )
        75           C3  tau(  75) = (   0.2148394   0.5330775   0.5686018  )
        76           N   tau(  76) = (   0.1418947   0.6602027   0.5686018  )
        77           N   tau(  77) = (   0.0709485   0.7841876   0.5686018  )
        78           N   tau(  78) = (   0.6432797   0.0409898   0.5686018  )
        79           N   tau(  79) = (   0.5717930   0.1647678   0.5686018  )
        80           N   tau(  80) = (   0.5002145   0.2885720   0.5686018  )
        81           N   tau(  81) = (   0.4284168   0.4123125   0.5686018  )
        82           N   tau(  82) = (   0.3591528   0.5364523   0.5686018  )
        83           N   tau(  83) = (   0.2866267   0.6604486   0.5686018  )
        84           N   tau(  84) = (   0.2141647   0.7834136   0.5686018  )
        85           N   tau(  85) = (   0.7862879   0.0408973   0.5686018  )
        86           N   tau(  86) = (   0.7147525   0.1647085   0.5686018  )
        87           N   tau(  87) = (   0.6432213   0.2884853   0.5686018  )
        88           N   tau(  88) = (   0.5716419   0.4121672   0.5686018  )
        89           N   tau(  89) = (   0.5010498   0.5359745   0.5686018  )
        90           N   tau(  90) = (   0.4292784   0.6601520   0.5686018  )
        91           N   tau(  91) = (   0.3574711   0.7839737   0.5686018  )
        92           N   tau(  92) = (   0.9292454   0.0408710   0.5686018  )
        93           N   tau(  93) = (   0.8577438   0.1646625   0.5686018  )
        94           N   tau(  94) = (   0.7861596   0.2884650   0.5686018  )
        95           N   tau(  95) = (   0.7144506   0.4121259   0.5686018  )
        96           N   tau(  96) = (   0.6433014   0.5358440   0.5686018  )
        97           N   tau(  97) = (   0.5718474   0.6598256   0.5686018  )
        98           N   tau(  98) = (   0.5002484   0.7837058   0.5686018  )

     number of k points=     1
                       cart. coord. in units 2pi/alat
        k(    1) = (   0.0000000   0.0000000   0.0000000), wk =   1.0000000

     Dense  grid:   141872 G-vectors     FFT dimensions: (  81,  81,  96)

     Occupations read from input 

      Spin-up

        1.0000   1.0000   1.0000   1.0000   1.0000   1.0000   1.0000   1.0000
        1.0000   1.0000   1.0000   1.0000   1.0000   1.0000   1.0000   1.0000
        1.0000   1.0000   1.0000   1.0000   1.0000   1.0000   1.0000   1.0000
        1.0000   1.0000   1.0000   1.0000   1.0000   1.0000   1.0000   1.0000
        1.0000   1.0000   1.0000   1.0000   1.0000   1.0000   1.0000   1.0000
        1.0000   1.0000   1.0000   1.0000   1.0000   1.0000   1.0000   1.0000
        1.0000   1.0000   1.0000   1.0000   1.0000   1.0000   1.0000   1.0000
        1.0000   1.0000   1.0000   1.0000   1.0000   1.0000   1.0000   1.0000
        1.0000   1.0000   1.0000   1.0000   1.0000   1.0000   1.0000   1.0000
        1.0000   1.0000   1.0000   1.0000   1.0000   1.0000   1.0000   1.0000
        1.0000   1.0000   1.0000   1.0000   1.0000   1.0000   1.0000   1.0000
        1.0000   1.0000   1.0000   1.0000   1.0000   1.0000   1.0000   1.0000
        1.0000   1.0000   1.0000   1.0000   1.0000   1.0000   1.0000   1.0000
        1.0000   1.0000   1.0000   1.0000   1.0000   1.0000   1.0000   1.0000
        1.0000   1.0000   1.0000   1.0000   1.0000   1.0000   1.0000   1.0000
        1.0000   1.0000   1.0000   1.0000   1.0000   1.0000   1.0000   1.0000
        1.0000   1.0000   1.0000   1.0000   1.0000   1.0000   1.0000   1.0000
        1.0000   1.0000   1.0000   1.0000   1.0000   1.0000   1.0000   1.0000
        1.0000   1.0000   1.0000   1.0000   1.0000   1.0000   1.0000   1.0000
        1.0000   1.0000   1.0000   1.0000   1.0000   1.0000   1.0000   1.0000
        1.0000   1.0000   1.0000   1.0000   1.0000   1.0000   1.0000   1.0000
        1.0000   1.0000   1.0000   1.0000   1.0000   1.0000   1.0000   1.0000
        1.0000   1.0000   1.0000   1.0000   1.0000   1.0000   1.0000   1.0000
        1.0000   1.0000   1.0000   1.0000   1.0000   1.0000   1.0000   1.0000
        1.0000   1.0000   1.0000   1.0000   0.0000   0.0000   0.0000   0.0000
        0.0000   0.0000   0.0000   0.0000   0.0000   0.0000   0.0000   0.0000
        0.0000   0.0000   0.0000   0.0000   0.0000   0.0000   0.0000   0.0000
        0.0000   0.0000   0.0000   0.0000   0.0000   0.0000   0.0000   0.0000
        0.0000   0.0000   0.0000   0.0000   0.0000   0.0000   0.0000   0.0000
        0.0000   0.0000   0.0000   0.0000   0.0000   0.0000   0.0000   0.0000
        0.0000   0.0000   0.0000   0.0000   0.0000

      Spin-down

        1.0000   1.0000   1.0000   1.0000   1.0000   1.0000   1.0000   1.0000
        1.0000   1.0000   1.0000   1.0000   1.0000   1.0000   1.0000   1.0000
        1.0000   1.0000   1.0000   1.0000   1.0000   1.0000   1.0000   1.0000
        1.0000   1.0000   1.0000   1.0000   1.0000   1.0000   1.0000   1.0000
        1.0000   1.0000   1.0000   1.0000   1.0000   1.0000   1.0000   1.0000
        1.0000   1.0000   1.0000   1.0000   1.0000   1.0000   1.0000   1.0000
        1.0000   1.0000   1.0000   1.0000   1.0000   1.0000   1.0000   1.0000
        1.0000   1.0000   1.0000   1.0000   1.0000   1.0000   1.0000   1.0000
        1.0000   1.0000   1.0000   1.0000   1.0000   1.0000   1.0000   1.0000
        1.0000   1.0000   1.0000   1.0000   1.0000   1.0000   1.0000   1.0000
        1.0000   1.0000   1.0000   1.0000   1.0000   1.0000   1.0000   1.0000
        1.0000   1.0000   1.0000   1.0000   1.0000   1.0000   1.0000   1.0000
        1.0000   1.0000   1.0000   1.0000   1.0000   1.0000   1.0000   1.0000
        1.0000   1.0000   1.0000   1.0000   1.0000   1.0000   1.0000   1.0000
        1.0000   1.0000   1.0000   1.0000   1.0000   1.0000   1.0000   1.0000
        1.0000   1.0000   1.0000   1.0000   1.0000   1.0000   1.0000   1.0000
        1.0000   1.0000   1.0000   1.0000   1.0000   1.0000   1.0000   1.0000
        1.0000   1.0000   1.0000   1.0000   1.0000   1.0000   1.0000   1.0000
        1.0000   1.0000   1.0000   1.0000   1.0000   1.0000   1.0000   1.0000
        1.0000   1.0000   1.0000   1.0000   1.0000   1.0000   1.0000   1.0000
        1.0000   1.0000   1.0000   1.0000   1.0000   1.0000   1.0000   1.0000
        1.0000   1.0000   1.0000   1.0000   1.0000   1.0000   1.0000   1.0000
        1.0000   1.0000   1.0000   1.0000   1.0000   1.0000   1.0000   1.0000
        1.0000   1.0000   1.0000   1.0000   1.0000   1.0000   1.0000   1.0000
        1.0000   1.0000   1.0000   0.0000   0.0000   0.0000   0.0000   0.0000
        0.0000   0.0000   0.0000   0.0000   0.0000   0.0000   0.0000   0.0000
        0.0000   0.0000   0.0000   0.0000   0.0000   0.0000   0.0000   0.0000
        0.0000   0.0000   0.0000   0.0000   0.0000   0.0000   0.0000   0.0000
        0.0000   0.0000   0.0000   0.0000   0.0000   0.0000   0.0000   0.0000
        0.0000   0.0000   0.0000   0.0000   0.0000   0.0000   0.0000   0.0000
        0.0000   0.0000   0.0000   0.0000   0.0000

     Estimated max dynamical RAM per process >      74.06 MB

     Estimated total dynamical RAM >       4.63 GB
     Generating pointlists ...
     new r_m :   0.0336 (alat units)  1.1164 (a.u.) for type    1
     new r_m :   0.0332 (alat units)  1.1048 (a.u.) for type    2
     new r_m :   0.0330 (alat units)  1.0965 (a.u.) for type    3
     new r_m :   0.0330 (alat units)  1.0965 (a.u.) for type    4
     new r_m :   0.0330 (alat units)  1.0965 (a.u.) for type    5

     Check: negative core charge=   -0.000610

     Initial potential from superposition of free atoms

     starting charge  390.98597, renormalised to  391.00000

     negative rho (up, down):  2.934E+00 9.208E-04
     Starting wfcs are  392 randomized atomic wfcs

     total cpu time spent up to now is        4.1 secs

     Self-consistent Calculation

     iteration #  1     ecut=    15.00 Ry     beta= 0.70
     CG style diagonalization
     ethr =  1.00E-02,  avg # of iterations =  3.2

     negative rho (up, down):  8.360E+00 2.428E-03

     total cpu time spent up to now is       14.7 secs

     total energy              =   -1910.95049882 Ry
     Harris-Foulkes estimate   =   -1912.67591148 Ry
     estimated scf accuracy    <       8.65961805 Ry

     total magnetization       =     1.00 Bohr mag/cell
     absolute magnetization    =     1.57 Bohr mag/cell

     iteration #  2     ecut=    15.00 Ry     beta= 0.70
     CG style diagonalization
     ethr =  2.21E-03,  avg # of iterations =  3.5

     negative rho (up, down):  1.039E+01 2.523E-03

     total cpu time spent up to now is       22.0 secs

     total energy              =   -1911.84547557 Ry
     Harris-Foulkes estimate   =   -1912.03602968 Ry
     estimated scf accuracy    <       0.86287647 Ry

     total magnetization       =     1.00 Bohr mag/cell
     absolute magnetization    =     1.46 Bohr mag/cell

     iteration #  3     ecut=    15.00 Ry     beta= 0.70
     CG style diagonalization
     c_bands:  3 eigenvalues not converged
     c_bands:  3 eigenvalues not converged
     ethr =  2.21E-04,  avg # of iterations =  4.8

     negative rho (up, down):  1.102E+01 2.058E-03

     total cpu time spent up to now is       33.1 secs

     total energy              =   -1911.88982517 Ry
     Harris-Foulkes estimate   =   -1912.24029291 Ry
     estimated scf accuracy    <       0.71561080 Ry

     total magnetization       =     1.00 Bohr mag/cell
     absolute magnetization    =     1.27 Bohr mag/cell

     iteration #  4     ecut=    15.00 Ry     beta= 0.70
     CG style diagonalization
     c_bands:  2 eigenvalues not converged
     c_bands:  2 eigenvalues not converged
     ethr =  1.83E-04,  avg # of iterations =  3.9

     negative rho (up, down):  1.141E+01 2.170E-03

     total cpu time spent up to now is       42.1 secs

     total energy              =   -1912.06765528 Ry
     Harris-Foulkes estimate   =   -1912.12052957 Ry
     estimated scf accuracy    <       0.14473726 Ry

     total magnetization       =     1.00 Bohr mag/cell
     absolute magnetization    =     1.31 Bohr mag/cell

     iteration #  5     ecut=    15.00 Ry     beta= 0.70
     CG style diagonalization
     c_bands:  2 eigenvalues not converged
     c_bands:  1 eigenvalues not converged
     ethr =  3.70E-05,  avg # of iterations =  3.9

     negative rho (up, down):  1.148E+01 2.261E-03

     total cpu time spent up to now is       50.5 secs

     total energy              =   -1912.09246014 Ry
     Harris-Foulkes estimate   =   -1912.09568135 Ry
     estimated scf accuracy    <       0.00692640 Ry

     total magnetization       =     1.00 Bohr mag/cell
     absolute magnetization    =     1.29 Bohr mag/cell

     iteration #  6     ecut=    15.00 Ry     beta= 0.70
     CG style diagonalization
     c_bands:  2 eigenvalues not converged
     c_bands:  3 eigenvalues not converged
     ethr =  1.77E-06,  avg # of iterations = 10.3

     negative rho (up, down):  1.152E+01 2.248E-03

     total cpu time spent up to now is       73.0 secs

     total energy              =   -1912.09559829 Ry
     Harris-Foulkes estimate   =   -1912.09612253 Ry
     estimated scf accuracy    <       0.00245048 Ry

     total magnetization       =     1.00 Bohr mag/cell
     absolute magnetization    =     1.29 Bohr mag/cell

     iteration #  7     ecut=    15.00 Ry     beta= 0.70
     CG style diagonalization
     c_bands:  1 eigenvalues not converged
     ethr =  6.27E-07,  avg # of iterations =  3.4

     negative rho (up, down):  1.153E+01 2.261E-03

     total cpu time spent up to now is       79.9 secs

     total energy              =   -1912.09611745 Ry
     Harris-Foulkes estimate   =   -1912.09606425 Ry
     estimated scf accuracy    <       0.00013850 Ry

     total magnetization       =     1.00 Bohr mag/cell
     absolute magnetization    =     1.29 Bohr mag/cell

     iteration #  8     ecut=    15.00 Ry     beta= 0.70
     CG style diagonalization
     ethr =  3.54E-08,  avg # of iterations =  3.9

     negative rho (up, down):  1.153E+01 2.286E-03

     total cpu time spent up to now is       88.4 secs

     total energy              =   -1912.09623605 Ry
     Harris-Foulkes estimate   =   -1912.09618583 Ry
     estimated scf accuracy    <       0.00005367 Ry

     total magnetization       =     1.00 Bohr mag/cell
     absolute magnetization    =     1.29 Bohr mag/cell

     iteration #  9     ecut=    15.00 Ry     beta= 0.70
     CG style diagonalization
     ethr =  1.37E-08,  avg # of iterations =  3.7

     negative rho (up, down):  1.153E+01 2.326E-03

     total cpu time spent up to now is       96.1 secs

     total energy              =   -1912.09627053 Ry
     Harris-Foulkes estimate   =   -1912.09627183 Ry
     estimated scf accuracy    <       0.00001419 Ry

     total magnetization       =     1.00 Bohr mag/cell
     absolute magnetization    =     1.30 Bohr mag/cell

     iteration # 10     ecut=    15.00 Ry     beta= 0.70
     CG style diagonalization
     ethr =  3.63E-09,  avg # of iterations =  3.7

     negative rho (up, down):  1.153E+01 2.335E-03

     total cpu time spent up to now is      103.9 secs

     total energy              =   -1912.09627986 Ry
     Harris-Foulkes estimate   =   -1912.09627792 Ry
     estimated scf accuracy    <       0.00000222 Ry

     total magnetization       =     1.00 Bohr mag/cell
     absolute magnetization    =     1.30 Bohr mag/cell

     iteration # 11     ecut=    15.00 Ry     beta= 0.70
     CG style diagonalization
     ethr =  5.68E-10,  avg # of iterations =  3.8

     negative rho (up, down):  1.153E+01 2.345E-03
 
     Magnetic moment per site:
     atom:    1    charge:    0.7879    magn:    0.0000    constr:    0.0000
     atom:    2    charge:    0.7675    magn:    0.0003    constr:    0.0000
     atom:    3    charge:    0.8017    magn:    0.0009    constr:    0.0000
     atom:    4    charge:    0.7559    magn:   -0.0001    constr:    0.0000
     atom:    5    charge:    0.8054    magn:    0.0001    constr:    0.0000
     atom:    6    charge:    0.7699    magn:    0.0001    constr:    0.0000
     atom:    7    charge:    0.7936    magn:   -0.0000    constr:    0.0000
     atom:    8    charge:    0.7693    magn:    0.0001    constr:    0.0000
     atom:    9    charge:    0.7795    magn:   -0.0004    constr:    0.0000
     atom:   10    charge:    0.7598    magn:    0.0029    constr:    0.0000
     atom:   11    charge:    0.7704    magn:    0.0005    constr:    0.0000
     atom:   12    charge:    0.7784    magn:    0.0001    constr:    0.0000
     atom:   13    charge:    0.7694    magn:   -0.0000    constr:    0.0000
     atom:   14    charge:    0.7699    magn:    0.0001    constr:    0.0000
     atom:   15    charge:    0.7778    magn:   -0.0001    constr:    0.0000
     atom:   16    charge:    0.8065    magn:    0.0001    constr:    0.0000
     atom:   17    charge:    0.7837    magn:    0.0016    constr:    0.0000
     atom:   18    charge:    0.7836    magn:    0.0061    constr:    0.0000
     atom:   19    charge:    0.8051    magn:   -0.0004    constr:    0.0000
     atom:   20    charge:    0.7784    magn:    0.0002    constr:    0.0000
     atom:   21    charge:    0.8054    magn:    0.0001    constr:    0.0000
     atom:   22    charge:    0.7747    magn:    0.0001    constr:    0.0000
     atom:   23    charge:    0.7493    magn:    0.0004    constr:    0.0000
     atom:   24    charge:    0.7688    magn:   -0.0005    constr:    0.0000
     atom:   25    charge:    1.4875    magn:   -0.0212    constr:    0.0000
     atom:   26    charge:    0.7836    magn:    0.0062    constr:    0.0000
     atom:   27    charge:    0.7704    magn:    0.0005    constr:    0.0000
     atom:   28    charge:    0.7559    magn:   -0.0001    constr:    0.0000
     atom:   29    charge:    0.7735    magn:    0.0001    constr:    0.0000
     atom:   30    charge:    0.7912    magn:    0.0001    constr:    0.0000
     atom:   31    charge:    0.7913    magn:   -0.0003    constr:    0.0000
     atom:   32    charge:    0.7688    magn:   -0.0005    constr:    0.0000
     atom:   33    charge:    0.7837    magn:    0.0017    constr:    0.0000
     atom:   34    charge:    0.7598    magn:    0.0030    constr:    0.0000
     atom:   35    charge:    0.8017    magn:    0.0009    constr:    0.0000
     atom:   36    charge:    0.7808    magn:    0.0004    constr:    0.0000
     atom:   37    charge:    0.7513    magn:   -0.0000    constr:    0.0000
     atom:   38    charge:    0.7912    magn:    0.0001    constr:    0.0000
     atom:   39    charge:    0.7493    magn:    0.0004    constr:    0.0000
     atom:   40    charge:    0.8065    magn:    0.0001    constr:    0.0000
     atom:   41    charge:    0.7795    magn:   -0.0003    constr:    0.0000
     atom:   42    charge:    0.7675    magn:    0.0003    constr:    0.0000
     atom:   43    charge:    0.7660    magn:   -0.0000    constr:    0.0000
     atom:   44    charge:    0.7808    magn:    0.0004    constr:    0.0000
     atom:   45    charge:    0.7735    magn:    0.0001    constr:    0.0000
     atom:   46    charge:    0.7747    magn:    0.0001    constr:    0.0000
     atom:   47    charge:    0.7778    magn:   -0.0001    constr:    0.0000
     atom:   48    charge:    0.7693    magn:    0.0001    constr:    0.0000
     atom:   49    charge:    0.7879    magn:    0.0000    constr:    0.0000
     atom:   50    charge:    2.5578    magn:    0.0005    constr:    0.0000
     atom:   51    charge:    2.5153    magn:   -0.0002    constr:    0.0000
     atom:   52    charge:    2.5478    magn:    0.0031    constr:    0.0000
     atom:   53    charge:    2.5320    magn:    0.0000    constr:    0.0000
     atom:   54    charge:    2.5286    magn:    0.0001    constr:    0.0000
     atom:   55    charge:    2.5483    magn:   -0.0000    constr:    0.0000
     atom:   56    charge:    2.5159    magn:   -0.0001    constr:    0.0000
     atom:   57    charge:    2.5240    magn:    0.0003    constr:    0.0000
     atom:   58    charge:    2.5423    magn:    0.0042    constr:    0.0000
     atom:   59    charge:    2.5448    magn:    0.0054    constr:    0.0000
     atom:   60    charge:    2.5007    magn:    0.0114    constr:    0.0000
     atom:   61    charge:    2.5780    magn:    0.0014    constr:    0.0000
     atom:   62    charge:    2.5139    magn:   -0.0001    constr:    0.0000
     atom:   63    charge:    2.5483    magn:   -0.0000    constr:    0.0000
     atom:   64    charge:    2.5805    magn:   -0.0000    constr:    0.0000
     atom:   65    charge:    2.5250    magn:    0.0002    constr:    0.0000
     atom:   66    charge:    2.5774    magn:    0.0148    constr:    0.0000
     atom:   67    charge:    1.5210    magn:    0.1010    constr:    0.0000
     atom:   68    charge:    2.5281    magn:   -0.0018    constr:    0.0000
     atom:   69    charge:    2.5780    magn:    0.0014    constr:    0.0000
     atom:   70    charge:    2.5286    magn:    0.0001    constr:    0.0000
     atom:   71    charge:    2.5216    magn:   -0.0000    constr:    0.0000
     atom:   72    charge:    2.5176    magn:    0.0002    constr:    0.0000
     atom:   73    charge:    2.5178    magn:    0.0014    constr:    0.0000
     atom:   74    charge:    2.4937    magn:   -0.0017    constr:    0.0000
     atom:   75    charge:    1.5209    magn:    0.1004    constr:    0.0000
     atom:   76    charge:    2.5007    magn:    0.0114    constr:    0.0000
     atom:   77    charge:    2.5319    magn:    0.0000    constr:    0.0000
     atom:   78    charge:    2.5758    magn:    0.0000    constr:    0.0000
     atom:   79    charge:    2.5187    magn:   -0.0000    constr:    0.0000
     atom:   80    charge:    2.5739    magn:   -0.0001    constr:    0.0000
     atom:   81    charge:    2.5178    magn:    0.0014    constr:    0.0000
     atom:   82    charge:    2.5775    magn:    0.0148    constr:    0.0000
     atom:   83    charge:    2.5448    magn:    0.0053    constr:    0.0000
     atom:   84    charge:    2.5477    magn:    0.0031    constr:    0.0000
     atom:   85    charge:    2.5273    magn:    0.0004    constr:    0.0000
     atom:   86    charge:    2.5178    magn:   -0.0001    constr:    0.0000
     atom:   87    charge:    2.5187    magn:   -0.0000    constr:    0.0000
     atom:   88    charge:    2.5176    magn:    0.0002    constr:    0.0000
     atom:   89    charge:    2.5250    magn:    0.0002    constr:    0.0000
     atom:   90    charge:    2.5423    magn:    0.0041    constr:    0.0000
     atom:   91    charge:    2.5153    magn:   -0.0002    constr:    0.0000
     atom:   92    charge:    2.5591    magn:   -0.0001    constr:    0.0000
     atom:   93    charge:    2.5273    magn:    0.0004    constr:    0.0000
     atom:   94    charge:    2.5758    magn:    0.0000    constr:    0.0000
     atom:   95    charge:    2.5216    magn:   -0.0000    constr:    0.0000
     atom:   96    charge:    2.5805    magn:   -0.0000    constr:    0.0000
     atom:   97    charge:    2.5240    magn:    0.0003    constr:    0.0000
     atom:   98    charge:    2.5578    magn:    0.0005    constr:    0.0000

     total cpu time spent up to now is      112.2 secs

     End of self-consistent calculation

 ------ SPIN UP ------------


          k = 0.0000 0.0000 0.0000 ( 17757 PWs)   bands (ev):

   -23.4931 -23.3153 -23.1358 -23.1273 -23.1110 -23.0599 -23.0102 -22.6649
   -22.4902 -22.4668 -22.4605 -22.3889 -22.3809 -22.2828 -22.1709 -22.1679
   -22.1426 -22.0216 -21.9995 -21.5617 -21.4089 -21.4077 -21.4066 -21.3911
   -21.3889 -21.3852 -21.3783 -21.3514 -21.3384 -21.2126 -21.2123 -21.1177
   -21.0714 -21.0680 -21.0435 -20.9042 -20.8905 -20.7366 -20.7290 -20.7179
   -20.7064 -20.6495 -20.6299 -20.5879 -20.5682 -20.5652 -20.5481 -18.3890
   -16.0568 -13.7458 -13.3061 -13.2993 -13.2864 -13.2592 -13.2525 -13.2076
   -13.1198 -13.0980 -13.0901 -13.0442 -12.9742 -12.7519 -12.6643 -12.6580
   -12.6399 -12.5692 -12.5404 -12.1981 -12.0532 -12.0510 -12.0448 -12.0416
   -12.0303 -12.0160 -12.0150 -11.9614 -11.9412 -11.7692 -11.6594 -11.3031
   -11.0869 -11.0805 -11.0552 -11.0321 -10.9015 -10.7186 -10.7131 -10.6663
   -10.5980 -10.5302 -10.4679  -9.8661  -9.8416  -9.7767  -9.7475  -9.7240
    -9.7221  -9.6540  -9.5340  -9.4877  -9.4649  -9.4442  -9.3744  -9.3551
    -9.3333  -9.2909  -9.2904  -9.2723  -9.2678  -9.2236  -9.2191  -9.2036
    -9.1758  -9.1655  -9.1584  -9.1571  -9.1477  -9.1297  -9.0672  -8.9845
    -8.9033  -8.7997  -8.4170  -8.4118  -8.4043  -8.3618  -8.3214  -8.2846
    -8.2480  -8.2298  -8.2231  -8.1456  -8.1452  -8.0678  -7.8072  -7.7151
    -7.7132  -7.6906  -7.6670  -7.6276  -7.6199  -7.6107  -7.5898  -7.5897
    -7.5754  -7.5647  -7.5311  -7.5185  -7.4673  -7.4126  -7.3380  -7.1894
    -7.1879  -7.1635  -7.0960  -6.9802  -6.7682  -6.5905  -6.5036  -6.3407
    -6.3385  -6.3359  -6.3270  -6.3221  -6.3172  -6.3124  -6.2864  -6.2693
    -6.1623  -6.0667  -5.9836  -5.9676  -5.9595  -5.8979  -5.7009  -5.6528
    -5.6242  -5.6170  -5.6063  -5.5639  -5.5398  -5.4290  -4.9734  -4.9608
    -4.9084  -4.8778  -4.8618  -4.8589  -4.7949  -4.7533  -4.6332  -4.5931
    -4.5905  -4.5855  -4.4575  -3.7014  -1.8424  -1.4285  -1.1944  -1.1923
    -1.1883  -1.1792  -1.1654  -1.1475  -1.1211  -0.7971  -0.7940  -0.7906
    -0.7875  -0.7752  -0.7710  -0.4981  -0.4935  -0.4899  -0.4815  -0.4693
    -0.4489  -0.1673  -0.0686   0.1016   0.1146   0.1155   0.1214   0.1258
     0.1329   0.2663   0.3036   0.3050   0.3131   0.3375   0.3410   0.4261
     0.4758   0.4860   0.4880   0.4916   0.4964   0.4966   0.5243   0.5255
     0.5274   0.5277   0.5347   0.5465   0.5481

 ------ SPIN DOWN ----------


          k = 0.0000 0.0000 0.0000 ( 17757 PWs)   bands (ev):

   -23.4881 -23.3131 -23.1332 -23.1254 -23.1100 -23.0514 -23.0042 -22.6610
   -22.4860 -22.4587 -22.4571 -22.3844 -22.3776 -22.2812 -22.1628 -22.1604
   -22.1387 -22.0085 -21.9920 -21.5524 -21.4061 -21.4042 -21.4039 -21.3883
   -21.3855 -21.3817 -21.3661 -21.3389 -21.3332 -21.2081 -21.2077 -21.1136
   -21.0661 -21.0616 -21.0374 -20.8935 -20.8841 -20.7287 -20.7243 -20.7113
   -20.7018 -20.6439 -20.6211 -20.5851 -20.5638 -20.5598 -20.5409 -18.2138
   -15.7362 -13.6923 -13.3038 -13.2953 -13.2837 -13.2566 -13.2510 -13.2040
   -13.1179 -13.0944 -13.0869 -13.0304 -12.9665 -12.7461 -12.6626 -12.6547
   -12.6357 -12.5584 -12.5316 -12.1858 -12.0493 -12.0478 -12.0416 -12.0391
   -12.0283 -12.0117 -12.0108 -11.9499 -11.9303 -11.7374 -11.6331 -11.2963
   -11.0850 -11.0786 -11.0488 -11.0272 -10.8919 -10.7130 -10.7081 -10.6594
   -10.5855 -10.5137 -10.4489  -9.8522  -9.8385  -9.7690  -9.7436  -9.7212
    -9.7173  -9.6485  -9.5302  -9.4842  -9.4610  -9.4351  -9.3622  -9.3469
    -9.3166  -9.2867  -9.2858  -9.2693  -9.2652  -9.2148  -9.2018  -9.1985
    -9.1722  -9.1631  -9.1540  -9.1436  -9.1218  -9.0990  -9.0514  -8.9712
    -8.8689  -8.7854  -8.4146  -8.4097  -8.4028  -8.3470  -8.3077  -8.2741
    -8.2395  -8.2156  -8.2153  -8.1252  -8.1118  -8.0490  -7.8007  -7.7001
    -7.6985  -7.6815  -7.6608  -7.6250  -7.6160  -7.5875  -7.5734  -7.5634
    -7.5503  -7.5480  -7.5291  -7.5156  -7.4632  -7.4036  -7.3238  -7.1869
    -7.1737  -7.1616  -7.0648  -6.9517  -6.7380  -6.5438  -6.4910  -6.3338
    -6.3318  -6.3312  -6.3161  -6.3157  -6.3098  -6.2930  -6.2614  -6.2553
    -6.0960  -6.0268  -5.9801  -5.9663  -5.9551  -5.8817  -5.6886  -5.6297
    -5.6141  -5.6032  -5.5979  -5.5298  -5.4714  -5.3753  -4.9144  -4.9096
    -4.8935  -4.8672  -4.8489  -4.8480  -4.7575  -4.7392  -4.6276  -4.5847
    -4.5798  -4.5771  -4.2995  -3.1112  -1.8399  -1.4274  -1.1941  -1.1919
    -1.1878  -1.1781  -1.1620  -1.1463  -1.1101  -0.7969  -0.7938  -0.7905
    -0.7864  -0.7732  -0.7670  -0.4977  -0.4936  -0.4896  -0.4812  -0.4678
    -0.4436  -0.1414  -0.0436   0.1022   0.1155   0.1166   0.1228   0.1325
     0.1389   0.2688   0.3111   0.3117   0.3239   0.3540   0.3566   0.4304
     0.4762   0.4870   0.4887   0.4919   0.4986   0.4989   0.5249   0.5260
     0.5278   0.5329   0.5357   0.5519   0.5738

     highest occupied, lowest unoccupied level (ev):    -3.7014   -3.1112

!    total energy              =   -1912.09628938 Ry
     Harris-Foulkes estimate   =   -1912.09628098 Ry
     estimated scf accuracy    <       0.00000036 Ry

     total magnetization       =     1.00 Bohr mag/cell
     absolute magnetization    =     1.30 Bohr mag/cell

     convergence has been achieved in  11 iterations

     Using ACE for calculation of exact exchange

     EXX grid:   141872 G-vectors     FFT dimensions: (  81,  81,  96)

     negative rho (up, down):  1.153E+01 2.345E-03

     EXX: now go back to refine exchange calculation

     total cpu time spent up to now is     2506.5 secs

     Self-consistent Calculation

     iteration #  1     ecut=    15.00 Ry     beta= 0.70
     CG style diagonalization
     c_bands:  1 eigenvalues not converged
     ethr =  5.68E-10,  avg # of iterations = 24.2

     negative rho (up, down):  1.172E+01 2.713E-03

     total cpu time spent up to now is     2583.6 secs

     total energy              =   -1694.81586768 Ry
     Harris-Foulkes estimate   =   -1694.84185609 Ry
     estimated scf accuracy    <       0.04549814 Ry

     total magnetization       =     1.00 Bohr mag/cell
     absolute magnetization    =     1.40 Bohr mag/cell

     iteration #  2     ecut=    15.00 Ry     beta= 0.70
     CG style diagonalization
     ethr =  1.16E-05,  avg # of iterations =  4.8

     negative rho (up, down):  1.160E+01 2.628E-03

     total cpu time spent up to now is     2597.5 secs

     total energy              =   -1686.24736836 Ry
     Harris-Foulkes estimate   =   -1686.27139399 Ry
     estimated scf accuracy    <       0.04941156 Ry

     total magnetization       =     1.00 Bohr mag/cell
     absolute magnetization    =     1.39 Bohr mag/cell

     iteration #  3     ecut=    15.00 Ry     beta= 0.70
     CG style diagonalization
     ethr =  1.16E-05,  avg # of iterations =  3.2

     negative rho (up, down):  1.137E+01 2.466E-03

     total cpu time spent up to now is     2605.7 secs

     total energy              =   -1686.24329996 Ry
     Harris-Foulkes estimate   =   -1686.25138317 Ry
     estimated scf accuracy    <       0.00885509 Ry

     total magnetization       =     1.00 Bohr mag/cell
     absolute magnetization    =     1.40 Bohr mag/cell

     iteration #  4     ecut=    15.00 Ry     beta= 0.70
     CG style diagonalization
     ethr =  2.26E-06,  avg # of iterations =  3.8

     negative rho (up, down):  1.138E+01 2.470E-03

     total cpu time spent up to now is     2615.9 secs

     total energy              =   -1686.24578742 Ry
     Harris-Foulkes estimate   =   -1686.24639534 Ry
     estimated scf accuracy    <       0.00145504 Ry

     total magnetization       =     1.00 Bohr mag/cell
     absolute magnetization    =     1.40 Bohr mag/cell

     iteration #  5     ecut=    15.00 Ry     beta= 0.70
     CG style diagonalization
     ethr =  3.72E-07,  avg # of iterations =  3.3

     negative rho (up, down):  1.138E+01 2.458E-03

     total cpu time spent up to now is     2624.2 secs

     total energy              =   -1686.24585832 Ry
     Harris-Foulkes estimate   =   -1686.24595162 Ry
     estimated scf accuracy    <       0.00026706 Ry

     total magnetization       =     1.00 Bohr mag/cell
     absolute magnetization    =     1.40 Bohr mag/cell

     iteration #  6     ecut=    15.00 Ry     beta= 0.70
     CG style diagonalization
     ethr =  6.83E-08,  avg # of iterations =  3.8

     negative rho (up, down):  1.138E+01 2.450E-03

     total cpu time spent up to now is     2634.3 secs

     total energy              =   -1686.24595195 Ry
     Harris-Foulkes estimate   =   -1686.24596500 Ry
     estimated scf accuracy    <       0.00002993 Ry

     total magnetization       =     1.00 Bohr mag/cell
     absolute magnetization    =     1.40 Bohr mag/cell

     iteration #  7     ecut=    15.00 Ry     beta= 0.70
     CG style diagonalization
     ethr =  7.65E-09,  avg # of iterations =  3.7

     negative rho (up, down):  1.138E+01 2.461E-03

     total cpu time spent up to now is     2643.9 secs

     total energy              =   -1686.24595043 Ry
     Harris-Foulkes estimate   =   -1686.24595639 Ry
     estimated scf accuracy    <       0.00000121 Ry

     total magnetization       =     1.00 Bohr mag/cell
     absolute magnetization    =     1.40 Bohr mag/cell

     iteration #  8     ecut=    15.00 Ry     beta= 0.70
     CG style diagonalization
     ethr =  3.09E-10,  avg # of iterations =  3.9

     negative rho (up, down):  1.138E+01 2.475E-03
 
     Magnetic moment per site:
     atom:    1    charge:    0.7698    magn:   -0.0001    constr:    0.0000
     atom:    2    charge:    0.7492    magn:    0.0002    constr:    0.0000
     atom:    3    charge:    0.7835    magn:    0.0006    constr:    0.0000
     atom:    4    charge:    0.7379    magn:   -0.0000    constr:    0.0000
     atom:    5    charge:    0.7874    magn:    0.0000    constr:    0.0000
     atom:    6    charge:    0.7518    magn:    0.0001    constr:    0.0000
     atom:    7    charge:    0.7754    magn:   -0.0001    constr:    0.0000
     atom:    8    charge:    0.7508    magn:    0.0000    constr:    0.0000
     atom:    9    charge:    0.7614    magn:   -0.0004    constr:    0.0000
     atom:   10    charge:    0.7416    magn:    0.0025    constr:    0.0000
     atom:   11    charge:    0.7522    magn:    0.0003    constr:    0.0000
     atom:   12    charge:    0.7603    magn:    0.0001    constr:    0.0000
     atom:   13    charge:    0.7514    magn:    0.0000    constr:    0.0000
     atom:   14    charge:    0.7518    magn:    0.0001    constr:    0.0000
     atom:   15    charge:    0.7595    magn:   -0.0001    constr:    0.0000
     atom:   16    charge:    0.7884    magn:   -0.0001    constr:    0.0000
     atom:   17    charge:    0.7668    magn:    0.0014    constr:    0.0000
     atom:   18    charge:    0.7663    magn:    0.0058    constr:    0.0000
     atom:   19    charge:    0.7873    magn:   -0.0005    constr:    0.0000
     atom:   20    charge:    0.7603    magn:    0.0001    constr:    0.0000
     atom:   21    charge:    0.7874    magn:    0.0000    constr:    0.0000
     atom:   22    charge:    0.7564    magn:    0.0001    constr:    0.0000
     atom:   23    charge:    0.7312    magn:    0.0002    constr:    0.0000
     atom:   24    charge:    0.7506    magn:   -0.0009    constr:    0.0000
     atom:   25    charge:    1.4584    magn:   -0.0307    constr:    0.0000
     atom:   26    charge:    0.7663    magn:    0.0058    constr:    0.0000
     atom:   27    charge:    0.7522    magn:    0.0003    constr:    0.0000
     atom:   28    charge:    0.7379    magn:   -0.0000    constr:    0.0000
     atom:   29    charge:    0.7552    magn:    0.0001    constr:    0.0000
     atom:   30    charge:    0.7730    magn:   -0.0000    constr:    0.0000
     atom:   31    charge:    0.7731    magn:   -0.0004    constr:    0.0000
     atom:   32    charge:    0.7506    magn:   -0.0010    constr:    0.0000
     atom:   33    charge:    0.7668    magn:    0.0014    constr:    0.0000
     atom:   34    charge:    0.7416    magn:    0.0025    constr:    0.0000
     atom:   35    charge:    0.7835    magn:    0.0006    constr:    0.0000
     atom:   36    charge:    0.7625    magn:    0.0003    constr:    0.0000
     atom:   37    charge:    0.7333    magn:   -0.0000    constr:    0.0000
     atom:   38    charge:    0.7730    magn:   -0.0000    constr:    0.0000
     atom:   39    charge:    0.7312    magn:    0.0002    constr:    0.0000
     atom:   40    charge:    0.7884    magn:   -0.0002    constr:    0.0000
     atom:   41    charge:    0.7614    magn:   -0.0004    constr:    0.0000
     atom:   42    charge:    0.7492    magn:    0.0002    constr:    0.0000
     atom:   43    charge:    0.7474    magn:   -0.0000    constr:    0.0000
     atom:   44    charge:    0.7625    magn:    0.0002    constr:    0.0000
     atom:   45    charge:    0.7552    magn:    0.0000    constr:    0.0000
     atom:   46    charge:    0.7564    magn:    0.0000    constr:    0.0000
     atom:   47    charge:    0.7596    magn:   -0.0001    constr:    0.0000
     atom:   48    charge:    0.7508    magn:    0.0001    constr:    0.0000
     atom:   49    charge:    0.7698    magn:   -0.0000    constr:    0.0000
     atom:   50    charge:    2.5430    magn:    0.0004    constr:    0.0000
     atom:   51    charge:    2.5004    magn:   -0.0001    constr:    0.0000
     atom:   52    charge:    2.5330    magn:    0.0023    constr:    0.0000
     atom:   53    charge:    2.5171    magn:   -0.0001    constr:    0.0000
     atom:   54    charge:    2.5137    magn:    0.0002    constr:    0.0000
     atom:   55    charge:    2.5334    magn:   -0.0000    constr:    0.0000
     atom:   56    charge:    2.5010    magn:    0.0000    constr:    0.0000
     atom:   57    charge:    2.5090    magn:    0.0002    constr:    0.0000
     atom:   58    charge:    2.5274    magn:    0.0035    constr:    0.0000
     atom:   59    charge:    2.5299    magn:    0.0052    constr:    0.0000
     atom:   60    charge:    2.4856    magn:    0.0104    constr:    0.0000
     atom:   61    charge:    2.5633    magn:    0.0011    constr:    0.0000
     atom:   62    charge:    2.4988    magn:   -0.0001    constr:    0.0000
     atom:   63    charge:    2.5334    magn:   -0.0001    constr:    0.0000
     atom:   64    charge:    2.5657    magn:   -0.0000    constr:    0.0000
     atom:   65    charge:    2.5101    magn:    0.0002    constr:    0.0000
     atom:   66    charge:    2.5626    magn:    0.0142    constr:    0.0000
     atom:   67    charge:    1.5021    magn:    0.1099    constr:    0.0000
     atom:   68    charge:    2.5131    magn:   -0.0022    constr:    0.0000
     atom:   69    charge:    2.5633    magn:    0.0011    constr:    0.0000
     atom:   70    charge:    2.5138    magn:    0.0001    constr:    0.0000
     atom:   71    charge:    2.5066    magn:   -0.0001    constr:    0.0000
     atom:   72    charge:    2.5026    magn:    0.0001    constr:    0.0000
     atom:   73    charge:    2.5029    magn:    0.0010    constr:    0.0000
     atom:   74    charge:    2.4763    magn:   -0.0029    constr:    0.0000
     atom:   75    charge:    1.5020    magn:    0.1095    constr:    0.0000
     atom:   76    charge:    2.4856    magn:    0.0104    constr:    0.0000
     atom:   77    charge:    2.5171    magn:   -0.0001    constr:    0.0000
     atom:   78    charge:    2.5610    magn:   -0.0001    constr:    0.0000
     atom:   79    charge:    2.5037    magn:   -0.0000    constr:    0.0000
     atom:   80    charge:    2.5591    magn:   -0.0001    constr:    0.0000
     atom:   81    charge:    2.5028    magn:    0.0010    constr:    0.0000
     atom:   82    charge:    2.5626    magn:    0.0142    constr:    0.0000
     atom:   83    charge:    2.5299    magn:    0.0052    constr:    0.0000
     atom:   84    charge:    2.5330    magn:    0.0023    constr:    0.0000
     atom:   85    charge:    2.5123    magn:    0.0003    constr:    0.0000
     atom:   86    charge:    2.5029    magn:   -0.0002    constr:    0.0000
     atom:   87    charge:    2.5037    magn:   -0.0000    constr:    0.0000
     atom:   88    charge:    2.5026    magn:    0.0000    constr:    0.0000
     atom:   89    charge:    2.5100    magn:    0.0002    constr:    0.0000
     atom:   90    charge:    2.5274    magn:    0.0034    constr:    0.0000
     atom:   91    charge:    2.5004    magn:   -0.0002    constr:    0.0000
     atom:   92    charge:    2.5441    magn:   -0.0002    constr:    0.0000
     atom:   93    charge:    2.5124    magn:    0.0004    constr:    0.0000
     atom:   94    charge:    2.5610    magn:    0.0001    constr:    0.0000
     atom:   95    charge:    2.5066    magn:    0.0000    constr:    0.0000
     atom:   96    charge:    2.5658    magn:    0.0000    constr:    0.0000
     atom:   97    charge:    2.5090    magn:    0.0002    constr:    0.0000
     atom:   98    charge:    2.5430    magn:    0.0004    constr:    0.0000

     total cpu time spent up to now is     2654.8 secs

     End of self-consistent calculation

 ------ SPIN UP ------------


          k = 0.0000 0.0000 0.0000 ( 17757 PWs)   bands (ev):

   -26.7032 -26.4863 -26.2978 -26.2886 -26.2699 -26.2176 -26.1584 -25.7447
   -25.5442 -25.5221 -25.5183 -25.4342 -25.4206 -25.3016 -25.1764 -25.1706
   -25.1504 -25.0141 -24.9847 -24.4676 -24.2820 -24.2783 -24.2758 -24.2605
   -24.2598 -24.2564 -24.2554 -24.2288 -24.2104 -24.0542 -24.0526 -23.9344
   -23.8811 -23.8809 -23.8606 -23.6931 -23.6781 -23.4914 -23.4782 -23.4690
   -23.4575 -23.3913 -23.3754 -23.3174 -23.2989 -23.2964 -23.2845 -21.1131
   -18.6321 -15.9425 -15.4363 -15.4334 -15.4185 -15.3872 -15.3782 -15.3297
   -15.2437 -15.2192 -15.2135 -15.1691 -15.0891 -14.7692 -14.6578 -14.6530
   -14.6284 -14.5725 -14.5518 -14.1664 -14.0217 -14.0157 -14.0005 -13.9939
   -13.9834 -13.9745 -13.9728 -13.9145 -13.9068 -13.7100 -13.6247 -13.1870
   -12.9616 -12.9527 -12.9337 -12.9052 -12.7716 -12.5122 -12.5114 -12.4635
   -12.3820 -12.3177 -12.2526 -11.5925 -11.5140 -11.4521 -11.4100 -11.3802
   -11.3800 -11.3064 -11.1849 -11.1347 -11.1060 -11.0768 -11.0110 -11.0077
   -10.9862 -10.9434 -10.9425 -10.9224 -10.8761 -10.8749 -10.8303 -10.8254
   -10.8093 -10.7719 -10.7623 -10.7598 -10.7489 -10.7326 -10.6711 -10.5875
   -10.5136 -10.3755  -9.9152  -9.9107  -9.9032  -9.8855  -9.8643  -9.7970
    -9.7638  -9.7466  -9.7416  -9.6613  -9.6580  -9.5647  -9.2728  -9.1643
    -9.1601  -9.1400  -9.1210  -9.0658  -9.0624  -9.0623  -9.0318  -9.0205
    -9.0018  -8.9894  -8.9546  -8.9371  -8.8901  -8.8337  -8.7720  -8.6113
    -8.5933  -8.5637  -8.5299  -8.3812  -8.1572  -7.9798  -7.7961  -7.6005
    -7.5971  -7.5933  -7.5873  -7.5791  -7.5754  -7.5725  -7.5521  -7.5285
    -7.4120  -7.3005  -7.2772  -7.2536  -7.2492  -7.2022  -6.9261  -6.8919
    -6.8471  -6.8065  -6.8008  -6.7878  -6.7196  -6.5926  -6.2294  -6.1971
    -6.0108  -5.9770  -5.9610  -5.9579  -5.8849  -5.8310  -5.6795  -5.6420
    -5.6394  -5.6331  -5.4905  -4.6196  -1.2453  -0.8872  -0.6251  -0.5973
    -0.5969  -0.5921  -0.5857  -0.5758  -0.5520  -0.2514  -0.2501  -0.2459
    -0.2438  -0.2340  -0.2292   0.0210   0.0230   0.0268   0.0343   0.0458
     0.0655   0.4333   0.7047   0.7147   0.7167   0.7183   0.7207   0.7233
     0.7257   0.8514   1.0304   1.0383   1.0390   1.0418   1.0468   1.0492
     1.0730   1.0732   1.0757   1.0829   1.0946   1.1550   1.3668   1.3711
     1.3765   1.3951   1.4022   1.6515   1.6704

 ------ SPIN DOWN ----------


          k = 0.0000 0.0000 0.0000 ( 17757 PWs)   bands (ev):

   -26.6967 -26.4832 -26.2940 -26.2861 -26.2685 -26.2048 -26.1488 -25.7404
   -25.5381 -25.5135 -25.5100 -25.4272 -25.4154 -25.2999 -25.1657 -25.1607
   -25.1451 -24.9954 -24.9736 -24.4550 -24.2761 -24.2748 -24.2717 -24.2571
   -24.2536 -24.2509 -24.2400 -24.2106 -24.2029 -24.0481 -24.0453 -23.9275
   -23.8743 -23.8723 -23.8527 -23.6782 -23.6678 -23.4801 -23.4717 -23.4596
   -23.4508 -23.3843 -23.3630 -23.3142 -23.2933 -23.2900 -23.2765 -20.8713
   -18.1425 -15.8689 -15.4338 -15.4284 -15.4151 -15.3835 -15.3761 -15.3256
   -15.2416 -15.2145 -15.2088 -15.1492 -15.0779 -14.7605 -14.6560 -14.6491
   -14.6232 -14.5591 -14.5414 -14.1507 -14.0154 -14.0106 -13.9980 -13.9923
   -13.9811 -13.9706 -13.9693 -13.8996 -13.8928 -13.6668 -13.5890 -13.1799
   -12.9592 -12.9506 -12.9254 -12.8986 -12.7580 -12.5071 -12.5049 -12.4550
   -12.3658 -12.2965 -12.2276 -11.5669 -11.5110 -11.4427 -11.4052 -11.3770
   -11.3742 -11.3000 -11.1811 -11.1305 -11.1017 -11.0651 -10.9960 -10.9765
   -10.9721 -10.9359 -10.9339 -10.9175 -10.8725 -10.8328 -10.8247 -10.8016
   -10.7681 -10.7594 -10.7563 -10.7446 -10.7248 -10.7165 -10.6521 -10.5712
   -10.4702 -10.3560  -9.9120  -9.9090  -9.9013  -9.8703  -9.8351  -9.7851
    -9.7482  -9.7276  -9.7160  -9.6157  -9.5968  -9.5420  -9.2606  -9.1360
    -9.1341  -9.1226  -9.1139  -9.0637  -9.0574  -9.0171  -8.9998  -8.9881
    -8.9530  -8.9470  -8.9464  -8.9343  -8.8863  -8.8244  -8.7522  -8.5908
    -8.5890  -8.5622  -8.5070  -8.3463  -8.1211  -7.9218  -7.7654  -7.5880
    -7.5816  -7.5809  -7.5684  -7.5649  -7.5574  -7.5334  -7.4941  -7.4940
    -7.2838  -7.2737  -7.2526  -7.2445  -7.2125  -7.1865  -6.8979  -6.8644
    -6.8041  -6.7824  -6.7759  -6.7599  -6.5788  -6.4803  -6.1685  -6.1415
    -5.9724  -5.9497  -5.9324  -5.9317  -5.8100  -5.8013  -5.6694  -5.6221
    -5.6178  -5.6087  -5.1431  -2.4621  -1.2438  -0.8864  -0.6247  -0.5972
    -0.5967  -0.5920  -0.5854  -0.5737  -0.5443  -0.2512  -0.2499  -0.2458
    -0.2431  -0.2319  -0.2259   0.0212   0.0231   0.0269   0.0345   0.0475
     0.0715   0.4372   0.7048   0.7152   0.7169   0.7190   0.7249   0.7300
     0.8420   0.8536   1.0305   1.0392   1.0395   1.0422   1.0500   1.0534
     1.0733   1.0735   1.0760   1.0839   1.0983   1.1975   1.3768   1.3809
     1.3934   1.4270   1.4283   1.5398   1.6590

     highest occupied, lowest unoccupied level (ev):    -4.6196   -2.4621

!    total energy              =   -1686.24594451 Ry
     Harris-Foulkes estimate   =   -1686.24595103 Ry
     estimated scf accuracy    <       0.00000028 Ry

     total magnetization       =     1.00 Bohr mag/cell
     absolute magnetization    =     1.40 Bohr mag/cell

     convergence has been achieved in   8 iterations

     Using ACE for calculation of exact exchange

     total energy              =   -1686.28907794 Ry
     Harris-Foulkes estimate   =   -1686.28908446 Ry
     est. exchange err (dexx)  =       0.04313343 Ry
     - averaged Fock potential =     191.73424329 Ry
     + Fock energy (ACE)       =     -96.00438738 Ry

     EXX: now go back to refine exchange calculation

     total cpu time spent up to now is     5041.8 secs

     Self-consistent Calculation

     iteration #  1     ecut=    15.00 Ry     beta= 0.70
     CG style diagonalization
     ethr =  3.09E-10,  avg # of iterations = 18.1

     negative rho (up, down):  1.138E+01 2.497E-03

     total cpu time spent up to now is     5098.6 secs

     total energy              =   -1686.29639263 Ry
     Harris-Foulkes estimate   =   -1686.29811895 Ry
     estimated scf accuracy    <       0.00274634 Ry

     total magnetization       =     1.00 Bohr mag/cell
     absolute magnetization    =     1.44 Bohr mag/cell

     iteration #  2     ecut=    15.00 Ry     beta= 0.70
     CG style diagonalization
     ethr =  7.02E-07,  avg # of iterations =  3.8

     negative rho (up, down):  1.138E+01 2.523E-03

     total cpu time spent up to now is     5108.6 secs

     total energy              =   -1686.29690656 Ry
     Harris-Foulkes estimate   =   -1686.29715777 Ry
     estimated scf accuracy    <       0.00035517 Ry

     total magnetization       =     1.00 Bohr mag/cell
     absolute magnetization    =     1.44 Bohr mag/cell

     iteration #  3     ecut=    15.00 Ry     beta= 0.70
     CG style diagonalization
     ethr =  9.08E-08,  avg # of iterations =  3.8

     negative rho (up, down):  1.138E+01 2.531E-03

     total cpu time spent up to now is     5118.6 secs

     total energy              =   -1686.29699348 Ry
     Harris-Foulkes estimate   =   -1686.29699440 Ry
     estimated scf accuracy    <       0.00001380 Ry

     total magnetization       =     1.00 Bohr mag/cell
     absolute magnetization    =     1.44 Bohr mag/cell

     iteration #  4     ecut=    15.00 Ry     beta= 0.70
     CG style diagonalization
     ethr =  3.53E-09,  avg # of iterations =  3.5

     negative rho (up, down):  1.138E+01 2.523E-03

     total cpu time spent up to now is     5127.4 secs

     total energy              =   -1686.29699291 Ry
     Harris-Foulkes estimate   =   -1686.29699659 Ry
     estimated scf accuracy    <       0.00000164 Ry

     total magnetization       =     1.00 Bohr mag/cell
     absolute magnetization    =     1.44 Bohr mag/cell

     iteration #  5     ecut=    15.00 Ry     beta= 0.70
     CG style diagonalization
     ethr =  4.20E-10,  avg # of iterations =  3.5

     negative rho (up, down):  1.138E+01 2.529E-03
 
     Magnetic moment per site:
     atom:    1    charge:    0.7668    magn:   -0.0001    constr:    0.0000
     atom:    2    charge:    0.7462    magn:    0.0002    constr:    0.0000
     atom:    3    charge:    0.7806    magn:    0.0005    constr:    0.0000
     atom:    4    charge:    0.7349    magn:   -0.0000    constr:    0.0000
     atom:    5    charge:    0.7844    magn:    0.0000    constr:    0.0000
     atom:    6    charge:    0.7488    magn:    0.0001    constr:    0.0000
     atom:    7    charge:    0.7724    magn:   -0.0000    constr:    0.0000
     atom:    8    charge:    0.7478    magn:    0.0000    constr:    0.0000
     atom:    9    charge:    0.7584    magn:   -0.0004    constr:    0.0000
     atom:   10    charge:    0.7386    magn:    0.0023    constr:    0.0000
     atom:   11    charge:    0.7492    magn:    0.0002    constr:    0.0000
     atom:   12    charge:    0.7573    magn:    0.0001    constr:    0.0000
     atom:   13    charge:    0.7484    magn:    0.0000    constr:    0.0000
     atom:   14    charge:    0.7488    magn:    0.0001    constr:    0.0000
     atom:   15    charge:    0.7566    magn:   -0.0001    constr:    0.0000
     atom:   16    charge:    0.7854    magn:   -0.0002    constr:    0.0000
     atom:   17    charge:    0.7642    magn:    0.0012    constr:    0.0000
     atom:   18    charge:    0.7636    magn:    0.0054    constr:    0.0000
     atom:   19    charge:    0.7843    magn:   -0.0005    constr:    0.0000
     atom:   20    charge:    0.7573    magn:    0.0001    constr:    0.0000
     atom:   21    charge:    0.7844    magn:    0.0000    constr:    0.0000
     atom:   22    charge:    0.7534    magn:    0.0000    constr:    0.0000
     atom:   23    charge:    0.7282    magn:    0.0002    constr:    0.0000
     atom:   24    charge:    0.7477    magn:   -0.0011    constr:    0.0000
     atom:   25    charge:    1.4552    magn:   -0.0367    constr:    0.0000
     atom:   26    charge:    0.7636    magn:    0.0055    constr:    0.0000
     atom:   27    charge:    0.7492    magn:    0.0003    constr:    0.0000
     atom:   28    charge:    0.7349    magn:   -0.0000    constr:    0.0000
     atom:   29    charge:    0.7522    magn:    0.0001    constr:    0.0000
     atom:   30    charge:    0.7700    magn:   -0.0000    constr:    0.0000
     atom:   31    charge:    0.7701    magn:   -0.0004    constr:    0.0000
     atom:   32    charge:    0.7477    magn:   -0.0012    constr:    0.0000
     atom:   33    charge:    0.7642    magn:    0.0012    constr:    0.0000
     atom:   34    charge:    0.7386    magn:    0.0023    constr:    0.0000
     atom:   35    charge:    0.7806    magn:    0.0005    constr:    0.0000
     atom:   36    charge:    0.7595    magn:    0.0002    constr:    0.0000
     atom:   37    charge:    0.7303    magn:   -0.0000    constr:    0.0000
     atom:   38    charge:    0.7700    magn:   -0.0000    constr:    0.0000
     atom:   39    charge:    0.7283    magn:    0.0002    constr:    0.0000
     atom:   40    charge:    0.7854    magn:   -0.0002    constr:    0.0000
     atom:   41    charge:    0.7584    magn:   -0.0004    constr:    0.0000
     atom:   42    charge:    0.7462    magn:    0.0002    constr:    0.0000
     atom:   43    charge:    0.7444    magn:   -0.0000    constr:    0.0000
     atom:   44    charge:    0.7595    magn:    0.0002    constr:    0.0000
     atom:   45    charge:    0.7522    magn:    0.0000    constr:    0.0000
     atom:   46    charge:    0.7534    magn:    0.0000    constr:    0.0000
     atom:   47    charge:    0.7566    magn:   -0.0001    constr:    0.0000
     atom:   48    charge:    0.7478    magn:    0.0000    constr:    0.0000
     atom:   49    charge:    0.7668    magn:   -0.0000    constr:    0.0000
     atom:   50    charge:    2.5433    magn:    0.0004    constr:    0.0000
     atom:   51    charge:    2.5007    magn:   -0.0001    constr:    0.0000
     atom:   52    charge:    2.5332    magn:    0.0020    constr:    0.0000
     atom:   53    charge:    2.5173    magn:   -0.0001    constr:    0.0000
     atom:   54    charge:    2.5140    magn:    0.0001    constr:    0.0000
     atom:   55    charge:    2.5337    magn:   -0.0000    constr:    0.0000
     atom:   56    charge:    2.5013    magn:    0.0000    constr:    0.0000
     atom:   57    charge:    2.5092    magn:    0.0002    constr:    0.0000
     atom:   58    charge:    2.5277    magn:    0.0032    constr:    0.0000
     atom:   59    charge:    2.5301    magn:    0.0052    constr:    0.0000
     atom:   60    charge:    2.4858    magn:    0.0099    constr:    0.0000
     atom:   61    charge:    2.5636    magn:    0.0010    constr:    0.0000
     atom:   62    charge:    2.4990    magn:   -0.0001    constr:    0.0000
     atom:   63    charge:    2.5337    magn:   -0.0001    constr:    0.0000
     atom:   64    charge:    2.5660    magn:    0.0000    constr:    0.0000
     atom:   65    charge:    2.5103    magn:    0.0002    constr:    0.0000
     atom:   66    charge:    2.5629    magn:    0.0137    constr:    0.0000
     atom:   67    charge:    1.5019    magn:    0.1148    constr:    0.0000
     atom:   68    charge:    2.5133    magn:   -0.0021    constr:    0.0000
     atom:   69    charge:    2.5636    magn:    0.0010    constr:    0.0000
     atom:   70    charge:    2.5140    magn:    0.0001    constr:    0.0000
     atom:   71    charge:    2.5069    magn:   -0.0000    constr:    0.0000
     atom:   72    charge:    2.5028    magn:    0.0001    constr:    0.0000
     atom:   73    charge:    2.5031    magn:    0.0008    constr:    0.0000
     atom:   74    charge:    2.4761    magn:   -0.0034    constr:    0.0000
     atom:   75    charge:    1.5019    magn:    0.1145    constr:    0.0000
     atom:   76    charge:    2.4858    magn:    0.0098    constr:    0.0000
     atom:   77    charge:    2.5173    magn:   -0.0000    constr:    0.0000
     atom:   78    charge:    2.5612    magn:   -0.0001    constr:    0.0000
     atom:   79    charge:    2.5040    magn:   -0.0000    constr:    0.0000
     atom:   80    charge:    2.5594    magn:   -0.0001    constr:    0.0000
     atom:   81    charge:    2.5031    magn:    0.0008    constr:    0.0000
     atom:   82    charge:    2.5629    magn:    0.0137    constr:    0.0000
     atom:   83    charge:    2.5301    magn:    0.0052    constr:    0.0000
     atom:   84    charge:    2.5332    magn:    0.0020    constr:    0.0000
     atom:   85    charge:    2.5126    magn:    0.0003    constr:    0.0000
     atom:   86    charge:    2.5031    magn:   -0.0002    constr:    0.0000
     atom:   87    charge:    2.5040    magn:   -0.0000    constr:    0.0000
     atom:   88    charge:    2.5028    magn:    0.0000    constr:    0.0000
     atom:   89    charge:    2.5103    magn:    0.0002    constr:    0.0000
     atom:   90    charge:    2.5277    magn:    0.0031    constr:    0.0000
     atom:   91    charge:    2.5007    magn:   -0.0002    constr:    0.0000
     atom:   92    charge:    2.5444    magn:   -0.0001    constr:    0.0000
     atom:   93    charge:    2.5126    magn:    0.0003    constr:    0.0000
     atom:   94    charge:    2.5612    magn:    0.0000    constr:    0.0000
     atom:   95    charge:    2.5069    magn:    0.0000    constr:    0.0000
     atom:   96    charge:    2.5660    magn:    0.0000    constr:    0.0000
     atom:   97    charge:    2.5092    magn:    0.0002    constr:    0.0000
     atom:   98    charge:    2.5433    magn:    0.0004    constr:    0.0000

     total cpu time spent up to now is     5136.5 secs

     End of self-consistent calculation

 ------ SPIN UP ------------


          k = 0.0000 0.0000 0.0000 ( 17757 PWs)   bands (ev):

   -26.6755 -26.4573 -26.2711 -26.2623 -26.2435 -26.1913 -26.1320 -25.7172
   -25.5178 -25.4954 -25.4921 -25.4080 -25.3945 -25.2754 -25.1500 -25.1440
   -25.1254 -24.9886 -24.9593 -24.4408 -24.2560 -24.2523 -24.2497 -24.2344
   -24.2337 -24.2304 -24.2293 -24.2028 -24.1852 -24.0287 -24.0269 -23.9084
   -23.8552 -23.8550 -23.8356 -23.6669 -23.6527 -23.4655 -23.4522 -23.4432
   -23.4316 -23.3654 -23.3500 -23.2917 -23.2730 -23.2712 -23.2592 -21.0979
   -18.6393 -15.9302 -15.4219 -15.4189 -15.4043 -15.3729 -15.3638 -15.3149
   -15.2282 -15.2040 -15.1986 -15.1543 -15.0756 -14.7589 -14.6495 -14.6449
   -14.6199 -14.5644 -14.5431 -14.1552 -14.0096 -14.0033 -13.9882 -13.9816
   -13.9711 -13.9626 -13.9608 -13.9027 -13.8965 -13.6993 -13.6155 -13.1763
   -12.9487 -12.9397 -12.9219 -12.8938 -12.7599 -12.5018 -12.5010 -12.4537
   -12.3725 -12.3084 -12.2447 -11.5849 -11.5111 -11.4495 -11.4072 -11.3778
   -11.3771 -11.3040 -11.1793 -11.1286 -11.1000 -11.0717 -11.0058 -10.9976
   -10.9822 -10.9355 -10.9351 -10.9149 -10.8736 -10.8689 -10.8293 -10.8201
   -10.8079 -10.7704 -10.7607 -10.7583 -10.7479 -10.7314 -10.6706 -10.5884
   -10.5146 -10.3774  -9.9220  -9.9175  -9.9094  -9.8928  -9.8553  -9.8048
    -9.7578  -9.7408  -9.7365  -9.6574  -9.6537  -9.5725  -9.2682  -9.1613
    -9.1568  -9.1387  -9.1268  -9.0702  -9.0673  -9.0624  -9.0317  -9.0262
    -9.0068  -8.9949  -8.9624  -8.9452  -8.8988  -8.8411  -8.7808  -8.6177
    -8.5955  -8.5660  -8.5341  -8.3857  -8.1642  -7.9914  -7.7957  -7.6061
    -7.6025  -7.5989  -7.5927  -7.5846  -7.5811  -7.5781  -7.5585  -7.5360
    -7.4202  -7.3111  -7.2904  -7.2668  -7.2625  -7.2167  -6.9422  -6.9047
    -6.8639  -6.8216  -6.8161  -6.8041  -6.7362  -6.6122  -6.2498  -6.2175
    -6.0360  -6.0032  -5.9882  -5.9843  -5.9133  -5.8608  -5.7116  -5.6758
    -5.6723  -5.6659  -5.5255  -4.6814  -1.2403  -0.8867  -0.6215  -0.5931
    -0.5926  -0.5880  -0.5819  -0.5724  -0.5494  -0.2507  -0.2494  -0.2453
    -0.2432  -0.2340  -0.2287   0.0239   0.0260   0.0297   0.0370   0.0483
     0.0676   0.4357   0.7078   0.7176   0.7198   0.7211   0.7233   0.7281
     0.7700   0.8569   1.0307   1.0385   1.0392   1.0421   1.0468   1.0499
     1.0740   1.0741   1.0765   1.0837   1.0948   1.1616   1.4139   1.4178
     1.4229   1.4398   1.4473   1.7058   1.7238

 ------ SPIN DOWN ----------


          k = 0.0000 0.0000 0.0000 ( 17757 PWs)   bands (ev):

   -26.6709 -26.4577 -26.2679 -26.2602 -26.2424 -26.1798 -26.1237 -25.7153
   -25.5126 -25.4881 -25.4848 -25.4014 -25.3900 -25.2745 -25.1402 -25.1353
   -25.1207 -24.9710 -24.9491 -24.4303 -24.2505 -24.2495 -24.2464 -24.2316
   -24.2282 -24.2255 -24.2154 -24.1863 -24.1787 -24.0232 -24.0204 -23.9024
   -23.8494 -23.8472 -23.8286 -23.6533 -23.6430 -23.4551 -23.4468 -23.4349
   -23.4259 -23.3591 -23.3387 -23.2891 -23.2681 -23.2655 -23.2522 -20.8519
   -18.1126 -15.8555 -15.4199 -15.4144 -15.4014 -15.3694 -15.3619 -15.3110
   -15.2264 -15.1994 -15.1942 -15.1342 -15.0645 -14.7507 -14.6480 -14.6414
   -14.6148 -14.5507 -14.5328 -14.1395 -14.0042 -13.9988 -13.9862 -13.9804
   -13.9692 -13.9591 -13.9581 -13.8877 -13.8828 -13.6540 -13.5777 -13.1702
   -12.9467 -12.9380 -12.9143 -12.8874 -12.7467 -12.4974 -12.4953 -12.4457
   -12.3560 -12.2867 -12.2184 -11.5602 -11.5088 -11.4407 -11.4028 -11.3746
   -11.3718 -11.2977 -11.1763 -11.1249 -11.0962 -11.0602 -10.9909 -10.9730
   -10.9676 -10.9298 -10.9276 -10.9111 -10.8719 -10.8285 -10.8239 -10.8003
   -10.7668 -10.7582 -10.7551 -10.7439 -10.7238 -10.7102 -10.6511 -10.5719
   -10.4688 -10.3571  -9.9190  -9.9161  -9.9077  -9.8778  -9.8344  -9.7931
    -9.7445  -9.7249  -9.7143  -9.6117  -9.5919  -9.5493  -9.2611  -9.1357
    -9.1342  -9.1230  -9.1202  -9.0686  -9.0626  -9.0230  -9.0050  -8.9938
    -8.9611  -8.9448  -8.9429  -8.9429  -8.8954  -8.8321  -8.7602  -8.5943
    -8.5935  -8.5648  -8.5124  -8.3495  -8.1262  -7.9307  -7.7798  -7.5955
    -7.5898  -7.5889  -7.5759  -7.5737  -7.5658  -7.5431  -7.5086  -7.5069
    -7.2913  -7.2873  -7.2659  -7.2582  -7.2237  -7.2012  -6.9126  -6.8831
    -6.8188  -6.8034  -6.7946  -6.7809  -6.5938  -6.4986  -6.1862  -6.1594
    -6.0039  -5.9822  -5.9639  -5.9626  -5.8408  -5.8322  -5.7049  -5.6592
    -5.6548  -5.6463  -5.1616  -2.3548  -1.2389  -0.8860  -0.6211  -0.5930
    -0.5926  -0.5880  -0.5817  -0.5705  -0.5421  -0.2506  -0.2492  -0.2453
    -0.2427  -0.2317  -0.2263   0.0241   0.0260   0.0297   0.0371   0.0500
     0.0735   0.4381   0.7078   0.7180   0.7198   0.7217   0.7273   0.7323
     0.8590   0.8593   1.0308   1.0394   1.0397   1.0424   1.0497   1.0539
     1.0743   1.0745   1.0768   1.0846   1.0987   1.2089   1.4207   1.4257
     1.4380   1.4719   1.4731   1.5842   1.7107

     highest occupied, lowest unoccupied level (ev):    -4.6814   -2.3548

!    total energy              =   -1686.29699035 Ry
     Harris-Foulkes estimate   =   -1686.29699344 Ry
     estimated scf accuracy    <       0.00000011 Ry

     total magnetization       =     1.00 Bohr mag/cell
     absolute magnetization    =     1.44 Bohr mag/cell

     convergence has been achieved in   5 iterations

     Using ACE for calculation of exact exchange

     total energy              =   -1686.29882576 Ry
     Harris-Foulkes estimate   =   -1686.29882885 Ry
     est. exchange err (dexx)  =       0.00183541 Ry
     - averaged Fock potential =     192.07796844 Ry
     + Fock energy (ACE)       =     -96.07541647 Ry

     EXX: now go back to refine exchange calculation

     total cpu time spent up to now is     7524.3 secs

     Self-consistent Calculation

     iteration #  1     ecut=    15.00 Ry     beta= 0.70
[...]
   -23.4148 -23.3479 -23.3278 -23.2780 -23.2568 -23.2545 -23.2412 -20.8413
   -18.0921 -15.8473 -15.4117 -15.4061 -15.3934 -15.3613 -15.3539 -15.3029
   -15.2178 -15.1908 -15.1859 -15.1254 -15.0562 -14.7434 -14.6414 -14.6348
   -14.6080 -14.5436 -14.5257 -14.1317 -13.9962 -13.9905 -13.9782 -13.9722
   -13.9612 -13.9511 -13.9503 -13.8794 -13.8753 -13.6445 -13.5695 -13.1627
   -12.9385 -12.9297 -12.9064 -12.8793 -12.7386 -12.4894 -12.4874 -12.4379
   -12.3477 -12.2782 -12.2103 -11.5542 -11.5025 -11.4347 -11.3964 -11.3682
   -11.3653 -11.2915 -11.1690 -11.1173 -11.0889 -11.0528 -10.9833 -10.9661
   -10.9632 -10.9242 -10.9218 -10.9055 -10.8660 -10.8235 -10.8177 -10.7942
   -10.7605 -10.7520 -10.7490 -10.7379 -10.7175 -10.7051 -10.6448 -10.5662
   -10.4619 -10.3514  -9.9145  -9.9116  -9.9030  -9.8732  -9.8324  -9.7887
    -9.7398  -9.7205  -9.7107  -9.6069  -9.5871  -9.5445  -9.2585  -9.1323
    -9.1309  -9.1191  -9.1151  -9.0633  -9.0572  -9.0179  -8.9997  -8.9887
    -8.9565  -8.9405  -8.9385  -8.9383  -8.8909  -8.8270  -8.7552  -8.5886
    -8.5871  -8.5586  -8.5068  -8.3428  -8.1202  -7.9258  -7.7841  -7.5950
    -7.5897  -7.5887  -7.5756  -7.5739  -7.5662  -7.5439  -7.5117  -7.5084
    -7.2916  -7.2830  -7.2615  -7.2537  -7.2238  -7.1971  -6.9084  -6.8874
    -6.8145  -6.8078  -6.7983  -6.7856  -6.5972  -6.5021  -6.1821  -6.1552
    -6.0133  -5.9913  -5.9727  -5.9711  -5.8496  -5.8406  -5.7144  -5.6692
    -5.6651  -5.6568  -5.1655  -2.3034  -1.2382  -0.8862  -0.6206  -0.5923
    -0.5919  -0.5874  -0.5811  -0.5701  -0.5421  -0.2507  -0.2493  -0.2454
    -0.2429  -0.2320  -0.2270   0.0245   0.0264   0.0301   0.0375   0.0502
     0.0736   0.4378   0.7082   0.7184   0.7203   0.7220   0.7275   0.7325
     0.8591   0.8601   1.0305   1.0390   1.0394   1.0421   1.0492   1.0535
     1.0742   1.0744   1.0767   1.0844   1.0984   1.2123   1.4378   1.4430
     1.4547   1.4888   1.4903   1.5997   1.7297

     highest occupied, lowest unoccupied level (ev):    -4.7160   -2.3034

!    total energy              =   -1686.29949364 Ry
     Harris-Foulkes estimate   =   -1686.29949629 Ry
     estimated scf accuracy    <       0.00000027 Ry

     total magnetization       =     1.00 Bohr mag/cell
     absolute magnetization    =     1.47 Bohr mag/cell

     convergence has been achieved in   2 iterations

     Using ACE for calculation of exact exchange

     total energy              =   -1686.29949569 Ry
     Harris-Foulkes estimate   =   -1686.29949834 Ry
     est. exchange err (dexx)  =       0.00000205 Ry
     - averaged Fock potential =     192.20400654 Ry
     + Fock energy (ACE)       =     -96.10254724 Ry

     EXX: now go back to refine exchange calculation

     total cpu time spent up to now is    14837.2 secs

     Self-consistent Calculation

     iteration #  1     ecut=    15.00 Ry     beta= 0.70
     CG style diagonalization
     ethr =  4.02E-10,  avg # of iterations =  3.6

     negative rho (up, down):  1.138E+01 2.583E-03
 
     Magnetic moment per site:
     atom:    1    charge:    0.7660    magn:   -0.0000    constr:    0.0000
     atom:    2    charge:    0.7454    magn:    0.0002    constr:    0.0000
     atom:    3    charge:    0.7798    magn:    0.0005    constr:    0.0000
     atom:    4    charge:    0.7342    magn:   -0.0000    constr:    0.0000
     atom:    5    charge:    0.7837    magn:    0.0000    constr:    0.0000
     atom:    6    charge:    0.7481    magn:    0.0000    constr:    0.0000
     atom:    7    charge:    0.7717    magn:   -0.0000    constr:    0.0000
     atom:    8    charge:    0.7471    magn:    0.0000    constr:    0.0000
     atom:    9    charge:    0.7576    magn:   -0.0004    constr:    0.0000
     atom:   10    charge:    0.7379    magn:    0.0022    constr:    0.0000
     atom:   11    charge:    0.7484    magn:    0.0003    constr:    0.0000
     atom:   12    charge:    0.7565    magn:    0.0001    constr:    0.0000
     atom:   13    charge:    0.7477    magn:   -0.0000    constr:    0.0000
     atom:   14    charge:    0.7481    magn:    0.0000    constr:    0.0000
     atom:   15    charge:    0.7558    magn:   -0.0001    constr:    0.0000
     atom:   16    charge:    0.7847    magn:   -0.0001    constr:    0.0000
     atom:   17    charge:    0.7635    magn:    0.0010    constr:    0.0000
     atom:   18    charge:    0.7630    magn:    0.0051    constr:    0.0000
     atom:   19    charge:    0.7835    magn:   -0.0005    constr:    0.0000
     atom:   20    charge:    0.7565    magn:    0.0001    constr:    0.0000
     atom:   21    charge:    0.7837    magn:    0.0000    constr:    0.0000
     atom:   22    charge:    0.7526    magn:    0.0000    constr:    0.0000
     atom:   23    charge:    0.7275    magn:    0.0001    constr:    0.0000
     atom:   24    charge:    0.7469    magn:   -0.0013    constr:    0.0000
     atom:   25    charge:    1.4548    magn:   -0.0430    constr:    0.0000
     atom:   26    charge:    0.7630    magn:    0.0051    constr:    0.0000
     atom:   27    charge:    0.7484    magn:    0.0003    constr:    0.0000
     atom:   28    charge:    0.7342    magn:   -0.0000    constr:    0.0000
     atom:   29    charge:    0.7514    magn:    0.0000    constr:    0.0000
     atom:   30    charge:    0.7693    magn:   -0.0000    constr:    0.0000
     atom:   31    charge:    0.7693    magn:   -0.0004    constr:    0.0000
     atom:   32    charge:    0.7469    magn:   -0.0013    constr:    0.0000
     atom:   33    charge:    0.7635    magn:    0.0010    constr:    0.0000
     atom:   34    charge:    0.7379    magn:    0.0022    constr:    0.0000
     atom:   35    charge:    0.7798    magn:    0.0005    constr:    0.0000
     atom:   36    charge:    0.7587    magn:    0.0002    constr:    0.0000
     atom:   37    charge:    0.7296    magn:   -0.0000    constr:    0.0000
     atom:   38    charge:    0.7693    magn:   -0.0000    constr:    0.0000
     atom:   39    charge:    0.7275    magn:    0.0001    constr:    0.0000
     atom:   40    charge:    0.7847    magn:   -0.0001    constr:    0.0000
     atom:   41    charge:    0.7576    magn:   -0.0004    constr:    0.0000
     atom:   42    charge:    0.7454    magn:    0.0002    constr:    0.0000
     atom:   43    charge:    0.7436    magn:   -0.0000    constr:    0.0000
     atom:   44    charge:    0.7587    magn:    0.0002    constr:    0.0000
     atom:   45    charge:    0.7514    magn:    0.0000    constr:    0.0000
     atom:   46    charge:    0.7526    magn:    0.0000    constr:    0.0000
     atom:   47    charge:    0.7558    magn:   -0.0001    constr:    0.0000
     atom:   48    charge:    0.7471    magn:    0.0000    constr:    0.0000
     atom:   49    charge:    0.7660    magn:   -0.0000    constr:    0.0000
     atom:   50    charge:    2.5439    magn:    0.0003    constr:    0.0000
     atom:   51    charge:    2.5013    magn:   -0.0001    constr:    0.0000
     atom:   52    charge:    2.5339    magn:    0.0018    constr:    0.0000
     atom:   53    charge:    2.5180    magn:    0.0000    constr:    0.0000
     atom:   54    charge:    2.5147    magn:    0.0001    constr:    0.0000
     atom:   55    charge:    2.5343    magn:    0.0000    constr:    0.0000
     atom:   56    charge:    2.5019    magn:   -0.0000    constr:    0.0000
     atom:   57    charge:    2.5099    magn:    0.0002    constr:    0.0000
     atom:   58    charge:    2.5283    magn:    0.0029    constr:    0.0000
     atom:   59    charge:    2.5308    magn:    0.0053    constr:    0.0000
     atom:   60    charge:    2.4864    magn:    0.0093    constr:    0.0000
     atom:   61    charge:    2.5643    magn:    0.0008    constr:    0.0000
     atom:   62    charge:    2.4997    magn:   -0.0000    constr:    0.0000
     atom:   63    charge:    2.5343    magn:   -0.0000    constr:    0.0000
     atom:   64    charge:    2.5667    magn:    0.0000    constr:    0.0000
     atom:   65    charge:    2.5110    magn:    0.0002    constr:    0.0000
     atom:   66    charge:    2.5636    magn:    0.0131    constr:    0.0000
     atom:   67    charge:    1.5027    magn:    0.1193    constr:    0.0000
     atom:   68    charge:    2.5140    magn:   -0.0015    constr:    0.0000
     atom:   69    charge:    2.5643    magn:    0.0008    constr:    0.0000
     atom:   70    charge:    2.5147    magn:    0.0001    constr:    0.0000
     atom:   71    charge:    2.5075    magn:   -0.0000    constr:    0.0000
     atom:   72    charge:    2.5035    magn:    0.0001    constr:    0.0000
     atom:   73    charge:    2.5037    magn:    0.0007    constr:    0.0000
     atom:   74    charge:    2.4767    magn:   -0.0035    constr:    0.0000
     atom:   75    charge:    1.5026    magn:    0.1192    constr:    0.0000
     atom:   76    charge:    2.4865    magn:    0.0094    constr:    0.0000
     atom:   77    charge:    2.5180    magn:    0.0000    constr:    0.0000
     atom:   78    charge:    2.5619    magn:    0.0000    constr:    0.0000
     atom:   79    charge:    2.5046    magn:   -0.0000    constr:    0.0000
     atom:   80    charge:    2.5600    magn:   -0.0001    constr:    0.0000
     atom:   81    charge:    2.5037    magn:    0.0007    constr:    0.0000
     atom:   82    charge:    2.5636    magn:    0.0131    constr:    0.0000
     atom:   83    charge:    2.5309    magn:    0.0053    constr:    0.0000
     atom:   84    charge:    2.5339    magn:    0.0018    constr:    0.0000
     atom:   85    charge:    2.5132    magn:    0.0002    constr:    0.0000
     atom:   86    charge:    2.5038    magn:   -0.0001    constr:    0.0000
     atom:   87    charge:    2.5046    magn:   -0.0000    constr:    0.0000
     atom:   88    charge:    2.5035    magn:    0.0001    constr:    0.0000
     atom:   89    charge:    2.5110    magn:    0.0002    constr:    0.0000
     atom:   90    charge:    2.5283    magn:    0.0028    constr:    0.0000
     atom:   91    charge:    2.5013    magn:   -0.0001    constr:    0.0000
     atom:   92    charge:    2.5451    magn:   -0.0000    constr:    0.0000
     atom:   93    charge:    2.5132    magn:    0.0002    constr:    0.0000
     atom:   94    charge:    2.5619    magn:    0.0000    constr:    0.0000
     atom:   95    charge:    2.5075    magn:    0.0000    constr:    0.0000
     atom:   96    charge:    2.5667    magn:    0.0000    constr:    0.0000
     atom:   97    charge:    2.5099    magn:    0.0002    constr:    0.0000
     atom:   98    charge:    2.5440    magn:    0.0003    constr:    0.0000

     total cpu time spent up to now is    14850.6 secs

     End of self-consistent calculation

 ------ SPIN UP ------------


          k = 0.0000 0.0000 0.0000 ( 17757 PWs)   bands (ev):

   -26.6636 -26.4440 -26.2606 -26.2521 -26.2334 -26.1806 -26.1210 -25.7054
   -25.5072 -25.4845 -25.4818 -25.3977 -25.3842 -25.2650 -25.1389 -25.1329
   -25.1155 -24.9780 -24.9487 -24.4294 -24.2454 -24.2418 -24.2391 -24.2239
   -24.2229 -24.2199 -24.2185 -24.1919 -24.1753 -24.0183 -24.0163 -23.8978
   -23.8446 -23.8442 -23.8256 -23.6558 -23.6423 -23.4547 -23.4412 -23.4325
   -23.4211 -23.3547 -23.3394 -23.2812 -23.2622 -23.2608 -23.2487 -21.0875
   -18.6444 -15.9211 -15.4140 -15.4110 -15.3966 -15.3654 -15.3562 -15.3071
   -15.2200 -15.1960 -15.1906 -15.1463 -15.0678 -14.7519 -14.6433 -14.6387
   -14.6137 -14.5582 -14.5365 -14.1477 -14.0015 -13.9953 -13.9806 -13.9740
   -13.9635 -13.9551 -13.9533 -13.8952 -13.8892 -13.6923 -13.6091 -13.1684
   -12.9409 -12.9318 -12.9140 -12.8863 -12.7521 -12.4939 -12.4931 -12.4462
   -12.3652 -12.3013 -12.2383 -11.5783 -11.5050 -11.4435 -11.4012 -11.3721
   -11.3712 -11.2984 -11.1724 -11.1215 -11.0932 -11.0649 -10.9991 -10.9886
   -10.9760 -10.9296 -10.9295 -10.9093 -10.8679 -10.8630 -10.8235 -10.8145
   -10.8023 -10.7647 -10.7550 -10.7527 -10.7425 -10.7257 -10.6653 -10.5834
   -10.5101 -10.3729  -9.9182  -9.9136  -9.9053  -9.8888  -9.8466  -9.8010
    -9.7523  -9.7355  -9.7320  -9.6532  -9.6495  -9.5689  -9.2620  -9.1563
    -9.1516  -9.1352  -9.1220  -9.0652  -9.0625  -9.0591  -9.0287  -9.0218
    -9.0022  -8.9905  -8.9584  -8.9411  -8.8949  -8.8367  -8.7769  -8.6130
    -8.5897  -8.5603  -8.5288  -8.3807  -8.1603  -7.9891  -7.7897  -7.6056
    -7.6018  -7.5984  -7.5917  -7.5841  -7.5808  -7.5773  -7.5580  -7.5367
    -7.4211  -7.3135  -7.2867  -7.2631  -7.2586  -7.2132  -6.9399  -6.9061
    -6.8619  -6.8244  -6.8192  -6.8080  -6.7399  -6.6179  -6.2481  -6.2160
    -6.0427  -6.0105  -5.9959  -5.9922  -5.9221  -5.8698  -5.7207  -5.6856
    -5.6819  -5.6754  -5.5382  -4.7187  -1.2395  -0.8868  -0.6210  -0.5924
    -0.5920  -0.5874  -0.5813  -0.5721  -0.5494  -0.2508  -0.2495  -0.2454
    -0.2432  -0.2343  -0.2287   0.0244   0.0264   0.0300   0.0375   0.0486
     0.0677   0.4365   0.7082   0.7180   0.7203   0.7215   0.7236   0.7284
     0.8000   0.8581   1.0306   1.0382   1.0389   1.0419   1.0464   1.0500
     1.0739   1.0741   1.0764   1.0837   1.0945   1.1657   1.4320   1.4358
     1.4408   1.4567   1.4648   1.7259   1.7435

 ------ SPIN DOWN ----------


          k = 0.0000 0.0000 0.0000 ( 17757 PWs)   bands (ev):

   -26.6607 -26.4476 -26.2576 -26.2502 -26.2324 -26.1699 -26.1138 -25.7054
   -25.5024 -25.4780 -25.4748 -25.3914 -25.3801 -25.2644 -25.1299 -25.1251
   -25.1108 -24.9612 -24.9391 -24.4203 -24.2402 -24.2393 -24.2363 -24.2214
   -24.2180 -24.2154 -24.2054 -24.1765 -24.1689 -24.0130 -24.0104 -23.8923
   -23.8394 -23.8370 -23.8187 -23.6432 -23.6328 -23.4449 -23.4365 -23.4248
   -23.4157 -23.3488 -23.3286 -23.2789 -23.2577 -23.2554 -23.2421 -20.8423
   -18.0922 -15.8480 -15.4122 -15.4067 -15.3939 -15.3619 -15.3544 -15.3034
   -15.2184 -15.1914 -15.1865 -15.1259 -15.0567 -14.7440 -14.6419 -14.6354
   -14.6086 -14.5442 -14.5263 -14.1323 -13.9968 -13.9911 -13.9788 -13.9728
   -13.9618 -13.9517 -13.9509 -13.8800 -13.8759 -13.6451 -13.5700 -13.1633
   -12.9390 -12.9302 -12.9069 -12.8799 -12.7391 -12.4900 -12.4880 -12.4385
   -12.3484 -12.2788 -12.2109 -11.5547 -11.5031 -11.4353 -11.3971 -11.3689
   -11.3660 -11.2921 -11.1697 -11.1180 -11.0895 -11.0535 -10.9840 -10.9668
   -10.9639 -10.9247 -10.9223 -10.9060 -10.8666 -10.8241 -10.8184 -10.7948
   -10.7611 -10.7526 -10.7496 -10.7385 -10.7181 -10.7058 -10.6454 -10.5669
   -10.4625 -10.3521  -9.9152  -9.9123  -9.9037  -9.8739  -9.8333  -9.7894
    -9.7403  -9.7210  -9.7114  -9.6075  -9.5876  -9.5452  -9.2592  -9.1330
    -9.1315  -9.1196  -9.1158  -9.0640  -9.0579  -9.0186  -9.0004  -8.9893
    -8.9572  -8.9411  -8.9392  -8.9390  -8.8916  -8.8277  -8.7559  -8.5893
    -8.5878  -8.5592  -8.5075  -8.3435  -8.1209  -7.9265  -7.7853  -7.5957
    -7.5905  -7.5895  -7.5764  -7.5747  -7.5670  -7.5448  -7.5126  -7.5091
    -7.2924  -7.2837  -7.2623  -7.2544  -7.2245  -7.1978  -6.9091  -6.8883
    -6.8152  -6.8087  -6.7992  -6.7865  -6.5982  -6.5030  -6.1828  -6.1559
    -6.0144  -5.9924  -5.9738  -5.9722  -5.8507  -5.8417  -5.7155  -5.6703
    -5.6662  -5.6580  -5.1667  -2.3021  -1.2382  -0.8862  -0.6206  -0.5923
    -0.5919  -0.5874  -0.5811  -0.5701  -0.5421  -0.2507  -0.2493  -0.2454
    -0.2429  -0.2320  -0.2270   0.0245   0.0264   0.0301   0.0375   0.0502
     0.0736   0.4378   0.7082   0.7184   0.7204   0.7220   0.7275   0.7325
     0.8583   0.8601   1.0305   1.0391   1.0394   1.0421   1.0492   1.0535
     1.0742   1.0744   1.0767   1.0844   1.0984   1.2121   1.4379   1.4431
     1.4548   1.4889   1.4904   1.5997   1.7297

     highest occupied, lowest unoccupied level (ev):    -4.7187   -2.3021

!    total energy              =   -1686.29949746 Ry
     Harris-Foulkes estimate   =   -1686.29949695 Ry
     estimated scf accuracy    <       0.00000073 Ry

     total magnetization       =     1.00 Bohr mag/cell
     absolute magnetization    =     1.48 Bohr mag/cell

     convergence has been achieved in   1 iterations

     Using ACE for calculation of exact exchange

!!   total energy              =   -1686.29949799 Ry
     Harris-Foulkes estimate   =   -1686.29949747 Ry
     est. exchange err (dexx)  =       0.00000052 Ry
     - averaged Fock potential =     192.20703976 Ry
     + Fock energy (ACE)       =     -96.10449305 Ry

     EXX self-consistency reached

     Writing output data file C2Cn.save/
 
     init_run     :      1.37s CPU      1.51s WALL (       1 calls)
     electrons    :    451.37s CPU    475.81s WALL (       7 calls)

     Called by init_run:
     wfcinit      :      0.68s CPU      0.76s WALL (       1 calls)
     potinit      :      0.34s CPU      0.35s WALL (       1 calls)
     hinit0       :      0.24s CPU      0.24s WALL (       1 calls)

     Called by electrons:
     c_bands      :    423.18s CPU    445.61s WALL (      33 calls)
     sum_band     :      5.45s CPU      5.77s WALL (      33 calls)
     v_of_rho     :      2.09s CPU      2.21s WALL (      35 calls)
     newd         :      0.63s CPU      0.69s WALL (      34 calls)
     PAW_pot      :     10.80s CPU     10.96s WALL (      35 calls)
     mix_rho      :      0.31s CPU      0.35s WALL (      33 calls)

     Called by c_bands:
     init_us_2    :      5.17s CPU      5.46s WALL (    3578 calls)
     rcgdiagg     :    411.38s CPU    433.18s WALL (      75 calls)
     wfcrot       :     12.14s CPU     12.79s WALL (      63 calls)

     Called by sum_band:
     sum_band:bec :      0.03s CPU      0.04s WALL (      66 calls)
     addusdens    :      0.44s CPU      0.47s WALL (      33 calls)

     Called by *cgdiagg:
     h_psi        :    223.69s CPU    234.63s WALL (   69344 calls)
     s_psi        :     83.22s CPU     86.28s WALL (  138625 calls)
     rdiaghg      :      1.46s CPU      1.54s WALL (      63 calls)

     Called by h_psi:
     h_psi:pot    :    192.26s CPU    201.06s WALL (   69344 calls)
     h_psi:calbec :     67.64s CPU     70.74s WALL (   69344 calls)
     vloc_psi     :     80.78s CPU     85.27s WALL (   69344 calls)
     add_vuspsi   :     43.06s CPU     44.39s WALL (   69344 calls)
     hs_1psi      :    259.58s CPU    271.58s WALL (   69281 calls)
     s_1psi       :     97.85s CPU    102.80s WALL (   69281 calls)

     General routines
     calbec       :    150.74s CPU    159.61s WALL (  190247 calls)
     fft          :      1.52s CPU      1.55s WALL (     574 calls)
     ffts         :      0.06s CPU      0.06s WALL (      66 calls)
     fftw         :     79.38s CPU     83.89s WALL (  162470 calls)
     fftc         :   1151.89s CPU   1180.06s WALL (  672280 calls)
     fftcw        :      3.51s CPU      3.77s WALL (    6874 calls)
 
     Parallel routines
     fft_scatt_xy :     20.04s CPU     20.35s WALL (  842264 calls)
     fft_scatt_yz :    947.12s CPU    968.03s WALL (  842264 calls)

     EXX routines
     exx_grid     :      0.00s CPU      0.00s WALL (       1 calls)
     exxinit      :      2.68s CPU      2.89s WALL (       7 calls)
     vexx         :  16512.50s CPU  16737.58s WALL (      14 calls)
     matcalc      :     25.37s CPU     27.17s WALL (   51542 calls)
     aceupdate    :      0.03s CPU      0.05s WALL (      14 calls)
     vexxace      :     31.18s CPU     33.35s WALL (   51502 calls)
     aceinit      :  16512.63s CPU  16737.76s WALL (      14 calls)

     EXX+US  routines
     becxx        :      0.01s CPU      0.01s WALL (       7 calls)
     addusxx      :   7190.52s CPU   7282.79s WALL (  672280 calls)
     newdxx       :   7082.73s CPU   7171.94s WALL (  672280 calls)
     qvan_init    :      0.06s CPU      0.10s WALL (      14 calls)
     nlxx_pot     :      7.18s CPU      7.45s WALL (    3430 calls)

     EXX+PAW routines
     PAW_newdxx   :   1006.56s CPU   1022.11s WALL (  672280 calls)
 
     PWSCF        :      4h42m CPU      4h47m WALL

 
   This run was terminated on:  10:50:16  21Sep2021            

=------------------------------------------------------------------------------=
   JOB DONE.
=------------------------------------------------------------------------------=
