
     Program PWSCF v.6.4.1 starts on  8Jun2021 at 19: 5:45 

     This program is part of the open-source Quantum ESPRESSO suite
     for quantum simulation of materials; please cite
         "P. Giannozzi et al., J. Phys.:Condens. Matter 21 395502 (2009);
         "P. Giannozzi et al., J. Phys.:Condens. Matter 29 465901 (2017);
          URL http://www.quantum-espresso.org", 
     in publications or presentations arising from this work. More details at
     http://www.quantum-espresso.org/quote

     Parallel version (MPI), running on    64 processors

     MPI processes distributed on     2 nodes
     R & G space division:  proc/nbgrp/npool/nimage =      64
     Waiting for input...
     Reading input from standard input

     Current dimensions of program PWSCF are:
     Max number of different atomic species (ntypx) = 10
     Max number of k-points (npk) =  40000
     Max angular momentum in pseudopotentials (lmaxx) =  3
               file N.pbe-n-kjpaw_psl.1.0.0.UPF: wavefunction(s)  2S renormalized
               file C.pbe-n-kjpaw_psl.1.0.0.UPF: wavefunction(s)  2S 2P renormalized
               file C.pbe-n-kjpaw_psl.1.0.0.UPF: wavefunction(s)  2S 2P renormalized
               file C.pbe-n-kjpaw_psl.1.0.0.UPF: wavefunction(s)  2S 2P renormalized

     --------------------------------------------
     Parameters for DFT-D3 Dispersion Correction:
     --------------------------------------------
       Reference C6 values for interpolation: 

         atom   Coordination number   C6
         B          0.000           214.36
         B          0.971           150.74
         B          1.944           106.23
         B          2.913            62.89
         B          4.586            56.06
         C1         0.000            98.23
         C1         0.987            86.49
         C1         1.998            58.72
         C1         2.999            51.56
         C1         3.984            36.41
         C2         0.000            98.23
         C2         0.987            86.49
         C2         1.998            58.72
         C2         2.999            51.56
         C2         3.984            36.41
         C3         0.000            98.23
         C3         0.987            86.49
         C3         1.998            58.72
         C3         2.999            51.56
         C3         3.984            36.41
         N          0.000            50.54
         N          0.994            44.25
         N          2.014            39.35
         N          2.990            31.16

       Values used:

         atom   Coordination number  R0_AB[au]  C6      C8
         B          3.327            3.039     62.90   2506.22
         B          3.317            3.039     62.90   2506.44
         B          3.318            3.039     62.90   2506.43
         B          3.323            3.039     62.90   2506.29
         B          3.325            3.039     62.90   2506.26
         B          3.323            3.039     62.90   2506.29
         B          3.326            3.039     62.90   2506.23
         B          3.324            3.039     62.90   2506.27
         B          3.324            3.039     62.90   2506.27
         B          3.307            3.039     62.91   2506.68
         B          3.319            3.039     62.90   2506.39
         B          3.324            3.039     62.90   2506.27
         B          3.323            3.039     62.90   2506.30
         B          3.323            3.039     62.90   2506.29
         B          3.324            3.039     62.90   2506.28
         B          3.326            3.039     62.90   2506.23
         B          3.294            3.039     62.92   2506.96
         B          3.279            3.039     62.92   2507.30
         B          3.322            3.039     62.90   2506.32
         B          3.324            3.039     62.90   2506.27
         B          3.325            3.039     62.90   2506.26
         B          3.322            3.039     62.90   2506.33
         B          3.317            3.039     62.90   2506.43
         B          3.306            3.039     62.91   2506.70
         C2         3.235            2.750     49.63   1435.39
         B          3.279            3.039     62.92   2507.30
         B          3.319            3.039     62.90   2506.39
         B          3.323            3.039     62.90   2506.29
         B          3.319            3.039     62.90   2506.38
         B          3.317            3.039     62.90   2506.45
         B          3.307            3.039     62.91   2506.66
         B          3.306            3.039     62.91   2506.70
         B          3.294            3.039     62.92   2506.96
         B          3.307            3.039     62.91   2506.68
         B          3.318            3.039     62.90   2506.43
         B          3.316            3.039     62.90   2506.47
         B          3.316            3.039     62.90   2506.45
         B          3.317            3.039     62.90   2506.45
         B          3.317            3.039     62.90   2506.43
         B          3.326            3.039     62.90   2506.23
         B          3.324            3.039     62.90   2506.27
         B          3.317            3.039     62.90   2506.44
         B          3.319            3.039     62.90   2506.40
         B          3.316            3.039     62.90   2506.47
         B          3.319            3.039     62.90   2506.38
         B          3.322            3.039     62.90   2506.33
         B          3.324            3.039     62.90   2506.28
         B          3.324            3.039     62.90   2506.27
         B          3.327            3.039     62.90   2506.22
         N          3.129            2.478     31.22    688.74
         N          3.129            2.478     31.22    688.75
         N          3.125            2.478     31.22    688.78
         N          3.128            2.478     31.22    688.76
         N          3.129            2.478     31.22    688.74
         N          3.128            2.478     31.22    688.75
         N          3.128            2.478     31.22    688.75
         N          3.128            2.478     31.22    688.75
         N          3.129            2.478     31.22    688.74
         N          3.126            2.478     31.22    688.78
         N          3.124            2.478     31.22    688.80
         N          3.129            2.478     31.22    688.74
         N          3.128            2.478     31.22    688.75
         N          3.128            2.478     31.22    688.75
         N          3.129            2.478     31.22    688.74
         N          3.129            2.478     31.22    688.75
         N          3.130            2.478     31.22    688.73
         C1         3.172            2.750     50.34   1455.91
         N          3.126            2.478     31.22    688.77
         N          3.129            2.478     31.22    688.74
         N          3.129            2.478     31.22    688.74
         N          3.128            2.478     31.22    688.75
         N          3.127            2.478     31.22    688.77
         N          3.123            2.478     31.22    688.80
         N          3.141            2.478     31.22    688.63
         C3         3.172            2.750     50.34   1455.91
         N          3.124            2.478     31.22    688.80
         N          3.128            2.478     31.22    688.76
         N          3.127            2.478     31.22    688.77
         N          3.126            2.478     31.22    688.77
         N          3.125            2.478     31.22    688.78
         N          3.123            2.478     31.22    688.80
         N          3.130            2.478     31.22    688.73
         N          3.126            2.478     31.22    688.78
         N          3.125            2.478     31.22    688.78
         N          3.126            2.478     31.22    688.77
         N          3.126            2.478     31.22    688.77
         N          3.126            2.478     31.22    688.77
         N          3.127            2.478     31.22    688.77
         N          3.129            2.478     31.22    688.75
         N          3.129            2.478     31.22    688.74
         N          3.129            2.478     31.22    688.75
         N          3.129            2.478     31.22    688.74
         N          3.126            2.478     31.22    688.77
         N          3.127            2.478     31.22    688.77
         N          3.128            2.478     31.22    688.75
         N          3.129            2.478     31.22    688.74
         N          3.128            2.478     31.22    688.75
         N          3.129            2.478     31.22    688.74

         Molecular C6 ( Ry / a.u.^6 ) =    437761.33


     gamma-point specific algorithms are used

     Subspace diagonalization in iterative solution of the eigenvalue problem:
     one sub-group per band group will be used
     scalapack distributed-memory algorithm (size of sub-group:  5*  5 procs)

     Message from routine setup:
     DEPRECATED: symmetry with ibrav=0, use correct ibrav instead
 
     Parallelization info
     --------------------
     sticks:   dense  smooth     PW     G-vecs:    dense   smooth      PW
     Min         189     189     46                19338    19338    2406
     Max         192     192     48                19354    19354    2428
     Sum       12173   12173   3053              1238265  1238265  154941
 


     bravais-lattice index     =            0
     lattice parameter (alat)  =      33.2346  a.u.
     unit-cell volume          =   36235.2308 (a.u.)^3
     number of atoms/cell      =           98
     number of atomic types    =            5
     number of electrons       =       391.00
     number of Kohn-Sham states=          245
     kinetic-energy cutoff     =      40.0000  Ry
     charge density cutoff     =     160.0000  Ry
     convergence threshold     =      1.0E-06
     mixing beta               =       0.7000
     number of iterations used =            8  plain     mixing
     Exchange-correlation      = SLA PW PBX PBC ( 1  4  3  4 0 0)
     Using LIBXC version       =    4   3   4
     nstep                     =           50


     celldm(1)=  33.234611  celldm(2)=   0.000000  celldm(3)=   0.000000
     celldm(4)=   0.000000  celldm(5)=   0.000000  celldm(6)=   0.000000

     crystal axes: (cart. coord. in units of alat)
               a(1) = (   1.001012   0.000223   0.000000 )  
               a(2) = (  -0.500313   0.867013   0.000000 )  
               a(3) = (   0.000000   0.000000   1.137204 )  

     reciprocal axes: (cart. coord. in units 2 pi/alat)
               b(1) = (  0.998860  0.576396  0.000000 )  
               b(2) = ( -0.000257  1.153237  0.000000 )  
               b(3) = (  0.000000  0.000000  0.879350 )  


     PseudoPot. # 1 for B  read from file:
     ./pseudo/B.pbe-n-kjpaw_psl.1.0.0.UPF
     MD5 check sum: 8c825a5969375aca5c2c6ad5945b3059
     Pseudo is Projector augmented-wave + core cor, Zval =  3.0
     Generated using "atomic" code by A. Dal Corso v.6.3
     Shape of augmentation charge: PSQ
     Using radial grid of 1059 points,  4 beta functions with: 
                l(1) =   0
                l(2) =   0
                l(3) =   1
                l(4) =   1
     Q(r) pseudized with 0 coefficients 


     PseudoPot. # 2 for N  read from file:
     ./pseudo/N.pbe-n-kjpaw_psl.1.0.0.UPF
     MD5 check sum: 14c48229446f9f2d411169a3abcbc3fa
     Pseudo is Projector augmented-wave + core cor, Zval =  5.0
     Generated using "atomic" code by A. Dal Corso v.6.3
     Shape of augmentation charge: PSQ
     Using radial grid of 1085 points,  4 beta functions with: 
                l(1) =   0
                l(2) =   0
                l(3) =   1
                l(4) =   1
     Q(r) pseudized with 0 coefficients 


     PseudoPot. # 3 for C  read from file:
     ./pseudo/C.pbe-n-kjpaw_psl.1.0.0.UPF
     MD5 check sum: 5f16ad9a65e90284d1d834d4ab3b0f7d
     Pseudo is Projector augmented-wave + core cor, Zval =  4.0
     Generated using "atomic" code by A. Dal Corso v.6.3
     Shape of augmentation charge: PSQ
     Using radial grid of 1073 points,  4 beta functions with: 
                l(1) =   0
                l(2) =   0
                l(3) =   1
                l(4) =   1
     Q(r) pseudized with 0 coefficients 


     PseudoPot. # 4 for C  read from file:
     ./pseudo/C.pbe-n-kjpaw_psl.1.0.0.UPF
     MD5 check sum: 5f16ad9a65e90284d1d834d4ab3b0f7d
     Pseudo is Projector augmented-wave + core cor, Zval =  4.0
     Generated using "atomic" code by A. Dal Corso v.6.3
     Shape of augmentation charge: PSQ
     Using radial grid of 1073 points,  4 beta functions with: 
                l(1) =   0
                l(2) =   0
                l(3) =   1
                l(4) =   1
     Q(r) pseudized with 0 coefficients 


     PseudoPot. # 5 for C  read from file:
     ./pseudo/C.pbe-n-kjpaw_psl.1.0.0.UPF
     MD5 check sum: 5f16ad9a65e90284d1d834d4ab3b0f7d
     Pseudo is Projector augmented-wave + core cor, Zval =  4.0
     Generated using "atomic" code by A. Dal Corso v.6.3
     Shape of augmentation charge: PSQ
     Using radial grid of 1073 points,  4 beta functions with: 
                l(1) =   0
                l(2) =   0
                l(3) =   1
                l(4) =   1
     Q(r) pseudized with 0 coefficients 


     atomic species   valence    mass     pseudopotential
        B              3.00    10.00000     B ( 1.00)
        N              5.00    14.00000     N ( 1.00)
        C1             4.00    12.00000     C ( 1.00)
        C2             4.00    12.00000     C ( 1.00)
        C3             4.00    12.00000     C ( 1.00)

     Starting magnetic structure 
     atomic species   magnetization
        B            0.000
        N            0.000
        C1           1.000
        C2           0.000
        C3           0.000

      2 Sym. Ops. (no inversion) found



   Cartesian axes

     site n.     atom                  positions (alat units)
         1           B   tau(   1) = (  -0.0000723   0.0821092   0.5686018  )
         2           B   tau(   2) = (  -0.0715511   0.2061904   0.5686018  )
         3           B   tau(   3) = (  -0.1432088   0.3302880   0.5686018  )
         4           B   tau(   4) = (  -0.2148287   0.4541127   0.5686018  )
         5           B   tau(   5) = (  -0.2858947   0.5780301   0.5686018  )
         6           B   tau(   6) = (  -0.3571692   0.7019967   0.5686018  )
         7           B   tau(   7) = (  -0.4287310   0.8256854   0.5686018  )
         8           B   tau(   8) = (   0.1429062   0.0818146   0.5686018  )
         9           B   tau(   9) = (   0.0710629   0.2050242   0.5686018  )
        10           B   tau(  10) = (  -0.0002012   0.3301497   0.5686018  )
        11           B   tau(  11) = (  -0.0724259   0.4541695   0.5686018  )
        12           B   tau(  12) = (  -0.1438127   0.5782228   0.5686018  )
        13           B   tau(  13) = (  -0.2145941   0.7020534   0.5686018  )
        14           B   tau(  14) = (  -0.2858325   0.8255554   0.5686018  )
        15           B   tau(  15) = (   0.2863534   0.0818761   0.5686018  )
        16           B   tau(  16) = (   0.2149279   0.2046417   0.5686018  )
        17           B   tau(  17) = (   0.1429526   0.3267396   0.5686018  )
        18           B   tau(  18) = (   0.0697059   0.4554947   0.5686018  )
        19           B   tau(  19) = (  -0.0020098   0.5793178   0.5686018  )
        20           B   tau(  20) = (  -0.0719629   0.7026702   0.5686018  )
        21           B   tau(  21) = (  -0.1428371   0.8258132   0.5686018  )
        22           B   tau(  22) = (   0.4291406   0.0826116   0.5686018  )
        23           B   tau(  23) = (   0.3576559   0.2061680   0.5686018  )
        24           B   tau(  24) = (   0.2855621   0.3293322   0.5686018  )
        25           C2  tau(  25) = (   0.2168682   0.4529487   0.5686018  )
        26           B   tau(  26) = (   0.1410821   0.5791218   0.5686018  )
        27           B   tau(  27) = (   0.0711638   0.7028741   0.5686018  )
        28           B   tau(  28) = (   0.0000117   0.8262270   0.5686018  )
        29           B   tau(  29) = (   0.5719551   0.0827365   0.5686018  )
        30           B   tau(  30) = (   0.5006086   0.2064951   0.5686018  )
        31           B   tau(  31) = (   0.4291471   0.3303893   0.5686018  )
        32           B   tau(  32) = (   0.3582702   0.4552662   0.5686018  )
        33           B   tau(  33) = (   0.2892107   0.5800659   0.5686018  )
        34           B   tau(  34) = (   0.2146805   0.7023357   0.5686018  )
        35           B   tau(  35) = (   0.1430569   0.8261147   0.5686018  )
        36           B   tau(  36) = (   0.7149819   0.0827764   0.5686018  )
        37           B   tau(  37) = (   0.6434954   0.2066353   0.5686018  )
        38           B   tau(  38) = (   0.5721734   0.3304490   0.5686018  )
        39           B   tau(  39) = (   0.5009803   0.4544133   0.5686018  )
        40           B   tau(  40) = (   0.4309382   0.5787825   0.5686018  )
        41           B   tau(  41) = (   0.3586745   0.7031820   0.5686018  )
        42           B   tau(  42) = (   0.2863575   0.8261061   0.5686018  )
        43           B   tau(  43) = (   0.8581231   0.0827199   0.5686018  )
        44           B   tau(  44) = (   0.7865036   0.2066556   0.5686018  )
        45           B   tau(  45) = (   0.7150247   0.3305405   0.5686018  )
        46           B   tau(  46) = (   0.6437256   0.4542839   0.5686018  )
        47           B   tau(  47) = (   0.5729690   0.5783089   0.5686018  )
        48           B   tau(  48) = (   0.5012987   0.7025685   0.5686018  )
        49           B   tau(  49) = (   0.4295543   0.8262442   0.5686018  )
        50           N   tau(  50) = (   0.0714089   0.0409481   0.5686018  )
        51           N   tau(  51) = (  -0.0003813   0.1643879   0.5686018  )
        52           N   tau(  52) = (  -0.0716675   0.2888818   0.5686018  )
        53           N   tau(  53) = (  -0.1435962   0.4127850   0.5686018  )
        54           N   tau(  54) = (  -0.2148739   0.5366493   0.5686018  )
        55           N   tau(  55) = (  -0.2858750   0.6606132   0.5686018  )
        56           N   tau(  56) = (  -0.3572747   0.7844303   0.5686018  )
        57           N   tau(  57) = (   0.2146232   0.0408972   0.5686018  )
        58           N   tau(  58) = (   0.1428894   0.1640755   0.5686018  )
        59           N   tau(  59) = (   0.0708831   0.2873089   0.5686018  )
        60           N   tau(  60) = (  -0.0010815   0.4130010   0.5686018  )
        61           N   tau(  61) = (  -0.0727790   0.5370009   0.5686018  )
        62           N   tau(  62) = (  -0.1432796   0.6608801   0.5686018  )
        63           N   tau(  63) = (  -0.2143462   0.7845048   0.5686018  )
        64           N   tau(  64) = (   0.3578134   0.0411473   0.5686018  )
        65           N   tau(  65) = (   0.2866481   0.1641674   0.5686018  )
        66           N   tau(  66) = (   0.2150630   0.2864065   0.5686018  )
        67           C1  tau(  67) = (   0.1447364   0.4124746   0.5686018  )
        68           N   tau(  68) = (   0.0686642   0.5385142   0.5686018  )
        69           N   tau(  69) = (  -0.0007469   0.6617643   0.5686018  )
        70           N   tau(  70) = (  -0.0714898   0.7849980   0.5686018  )
        71           N   tau(  71) = (   0.5005201   0.0416196   0.5686018  )
        72           N   tau(  72) = (   0.4291740   0.1652471   0.5686018  )
        73           N   tau(  73) = (   0.3574059   0.2892062   0.5686018  )
        74           N   tau(  74) = (   0.2853879   0.4133887   0.5686018  )
        75           C3  tau(  75) = (   0.2158538   0.5356535   0.5686018  )
        76           N   tau(  76) = (   0.1424890   0.6616724   0.5686018  )
        77           N   tau(  77) = (   0.0714186   0.7852018   0.5686018  )
        78           N   tau(  78) = (   0.6434528   0.0416093   0.5686018  )
        79           N   tau(  79) = (   0.5720220   0.1653295   0.5686018  )
        80           N   tau(  80) = (   0.5004948   0.2891967   0.5686018  )
        81           N   tau(  81) = (   0.4289421   0.4131105   0.5686018  )
        82           N   tau(  82) = (   0.3601952   0.5377829   0.5686018  )
        83           N   tau(  83) = (   0.2873238   0.6621952   0.5686018  )
        84           N   tau(  84) = (   0.2146863   0.7848612   0.5686018  )
        85           N   tau(  85) = (   0.7865365   0.0415914   0.5686018  )
        86           N   tau(  86) = (   0.7149798   0.1653637   0.5686018  )
        87           N   tau(  87) = (   0.6435305   0.2891859   0.5686018  )
        88           N   tau(  88) = (   0.5721779   0.4129370   0.5686018  )
        89           N   tau(  89) = (   0.5018499   0.5369080   0.5686018  )
        90           N   tau(  90) = (   0.4300502   0.6614527   0.5686018  )
        91           N   tau(  91) = (   0.3581443   0.7853726   0.5686018  )
        92           N   tau(  92) = (   0.9295312   0.0414925   0.5686018  )
        93           N   tau(  93) = (   0.8579482   0.1652800   0.5686018  )
        94           N   tau(  94) = (   0.7863908   0.2891851   0.5686018  )
        95           N   tau(  95) = (   0.7149155   0.4129633   0.5686018  )
        96           N   tau(  96) = (   0.6439712   0.5367871   0.5686018  )
        97           N   tau(  97) = (   0.5725927   0.6609186   0.5686018  )
        98           N   tau(  98) = (   0.5009415   0.7849205   0.5686018  )

     number of k points=     1
                       cart. coord. in units 2pi/alat
        k(    1) = (   0.0000000   0.0000000   0.0000000), wk =   1.0000000

     Dense  grid:   619133 G-vectors     FFT dimensions: ( 135, 135, 160)

     Occupations read from input 

      Spin-up

        1.0000   1.0000   1.0000   1.0000   1.0000   1.0000   1.0000   1.0000
        1.0000   1.0000   1.0000   1.0000   1.0000   1.0000   1.0000   1.0000
        1.0000   1.0000   1.0000   1.0000   1.0000   1.0000   1.0000   1.0000
        1.0000   1.0000   1.0000   1.0000   1.0000   1.0000   1.0000   1.0000
        1.0000   1.0000   1.0000   1.0000   1.0000   1.0000   1.0000   1.0000
        1.0000   1.0000   1.0000   1.0000   1.0000   1.0000   1.0000   1.0000
        1.0000   1.0000   1.0000   1.0000   1.0000   1.0000   1.0000   1.0000
        1.0000   1.0000   1.0000   1.0000   1.0000   1.0000   1.0000   1.0000
        1.0000   1.0000   1.0000   1.0000   1.0000   1.0000   1.0000   1.0000
        1.0000   1.0000   1.0000   1.0000   1.0000   1.0000   1.0000   1.0000
        1.0000   1.0000   1.0000   1.0000   1.0000   1.0000   1.0000   1.0000
        1.0000   1.0000   1.0000   1.0000   1.0000   1.0000   1.0000   1.0000
        1.0000   1.0000   1.0000   1.0000   1.0000   1.0000   1.0000   1.0000
        1.0000   1.0000   1.0000   1.0000   1.0000   1.0000   1.0000   1.0000
        1.0000   1.0000   1.0000   1.0000   1.0000   1.0000   1.0000   1.0000
        1.0000   1.0000   1.0000   1.0000   1.0000   1.0000   1.0000   1.0000
        1.0000   1.0000   1.0000   1.0000   1.0000   1.0000   1.0000   1.0000
        1.0000   1.0000   1.0000   1.0000   1.0000   1.0000   1.0000   1.0000
        1.0000   1.0000   1.0000   1.0000   1.0000   1.0000   1.0000   1.0000
        1.0000   1.0000   1.0000   1.0000   1.0000   1.0000   1.0000   1.0000
        1.0000   1.0000   1.0000   1.0000   1.0000   1.0000   1.0000   1.0000
        1.0000   1.0000   1.0000   1.0000   1.0000   1.0000   1.0000   1.0000
        1.0000   1.0000   1.0000   1.0000   1.0000   1.0000   1.0000   1.0000
        1.0000   1.0000   1.0000   1.0000   1.0000   1.0000   1.0000   1.0000
        1.0000   1.0000   1.0000   1.0000   1.0000   0.0000   0.0000   0.0000
        0.0000   0.0000   0.0000   0.0000   0.0000   0.0000   0.0000   0.0000
        0.0000   0.0000   0.0000   0.0000   0.0000   0.0000   0.0000   0.0000
        0.0000   0.0000   0.0000   0.0000   0.0000   0.0000   0.0000   0.0000
        0.0000   0.0000   0.0000   0.0000   0.0000   0.0000   0.0000   0.0000
        0.0000   0.0000   0.0000   0.0000   0.0000   0.0000   0.0000   0.0000
        0.0000   0.0000   0.0000   0.0000   0.0000

      Spin-down

        1.0000   1.0000   1.0000   1.0000   1.0000   1.0000   1.0000   1.0000
        1.0000   1.0000   1.0000   1.0000   1.0000   1.0000   1.0000   1.0000
        1.0000   1.0000   1.0000   1.0000   1.0000   1.0000   1.0000   1.0000
        1.0000   1.0000   1.0000   1.0000   1.0000   1.0000   1.0000   1.0000
        1.0000   1.0000   1.0000   1.0000   1.0000   1.0000   1.0000   1.0000
        1.0000   1.0000   1.0000   1.0000   1.0000   1.0000   1.0000   1.0000
        1.0000   1.0000   1.0000   1.0000   1.0000   1.0000   1.0000   1.0000
        1.0000   1.0000   1.0000   1.0000   1.0000   1.0000   1.0000   1.0000
        1.0000   1.0000   1.0000   1.0000   1.0000   1.0000   1.0000   1.0000
        1.0000   1.0000   1.0000   1.0000   1.0000   1.0000   1.0000   1.0000
        1.0000   1.0000   1.0000   1.0000   1.0000   1.0000   1.0000   1.0000
        1.0000   1.0000   1.0000   1.0000   1.0000   1.0000   1.0000   1.0000
        1.0000   1.0000   1.0000   1.0000   1.0000   1.0000   1.0000   1.0000
        1.0000   1.0000   1.0000   1.0000   1.0000   1.0000   1.0000   1.0000
        1.0000   1.0000   1.0000   1.0000   1.0000   1.0000   1.0000   1.0000
        1.0000   1.0000   1.0000   1.0000   1.0000   1.0000   1.0000   1.0000
        1.0000   1.0000   1.0000   1.0000   1.0000   1.0000   1.0000   1.0000
        1.0000   1.0000   1.0000   1.0000   1.0000   1.0000   1.0000   1.0000
        1.0000   1.0000   1.0000   1.0000   1.0000   1.0000   1.0000   1.0000
        1.0000   1.0000   1.0000   1.0000   1.0000   1.0000   1.0000   1.0000
        1.0000   1.0000   1.0000   1.0000   1.0000   1.0000   1.0000   1.0000
        1.0000   1.0000   1.0000   1.0000   1.0000   1.0000   1.0000   1.0000
        1.0000   1.0000   1.0000   1.0000   1.0000   1.0000   1.0000   1.0000
        1.0000   1.0000   1.0000   1.0000   1.0000   1.0000   1.0000   1.0000
        1.0000   1.0000   0.0000   0.0000   0.0000   0.0000   0.0000   0.0000
        0.0000   0.0000   0.0000   0.0000   0.0000   0.0000   0.0000   0.0000
        0.0000   0.0000   0.0000   0.0000   0.0000   0.0000   0.0000   0.0000
        0.0000   0.0000   0.0000   0.0000   0.0000   0.0000   0.0000   0.0000
        0.0000   0.0000   0.0000   0.0000   0.0000   0.0000   0.0000   0.0000
        0.0000   0.0000   0.0000   0.0000   0.0000   0.0000   0.0000   0.0000
        0.0000   0.0000   0.0000   0.0000   0.0000

     Estimated max dynamical RAM per process >     122.44 MB

     Estimated total dynamical RAM >       7.65 GB
     Generating pointlists ...
     new r_m :   0.0337 (alat units)  1.1188 (a.u.) for type    1
     new r_m :   0.0326 (alat units)  1.0847 (a.u.) for type    2
     new r_m :   0.0341 (alat units)  1.1339 (a.u.) for type    3
     new r_m :   0.0326 (alat units)  1.0847 (a.u.) for type    4
     new r_m :   0.0341 (alat units)  1.1339 (a.u.) for type    5

     Check: negative core charge=   -0.000006

     Initial potential from superposition of free atoms

     starting charge  390.98597, renormalised to  391.00000

     negative rho (up, down):  5.511E-02 5.802E-02
     Starting wfcs are  392 randomized atomic wfcs
     Checking if some PAW data can be deallocated... 

     total cpu time spent up to now is        8.2 secs

     Self-consistent Calculation

     iteration #  1     ecut=    40.00 Ry     beta= 0.70
     CG style diagonalization
     ethr =  1.00E-02,  avg # of iterations =  3.1

     negative rho (up, down):  3.259E-01 1.542E-02

     total cpu time spent up to now is       45.1 secs

     total energy              =   -1933.25686553 Ry
     Harris-Foulkes estimate   =   -1946.27702203 Ry
     estimated scf accuracy    <      19.77297150 Ry

     total magnetization       =     3.00 Bohr mag/cell
     absolute magnetization    =     3.31 Bohr mag/cell

     iteration #  2     ecut=    40.00 Ry     beta= 0.70
     CG style diagonalization
     ethr =  5.06E-03,  avg # of iterations =  4.0

     negative rho (up, down):  3.617E-01 1.192E-02

     total cpu time spent up to now is       80.8 secs

     total energy              =   -1937.43102170 Ry
     Harris-Foulkes estimate   =   -1943.63351053 Ry
     estimated scf accuracy    <      12.12372160 Ry

     total magnetization       =     3.00 Bohr mag/cell
     absolute magnetization    =     3.24 Bohr mag/cell

     iteration #  3     ecut=    40.00 Ry     beta= 0.70
     CG style diagonalization
     ethr =  3.10E-03,  avg # of iterations =  3.8

     negative rho (up, down):  4.045E-01 1.252E-02

     total cpu time spent up to now is      114.8 secs

     total energy              =   -1939.65523695 Ry
     Harris-Foulkes estimate   =   -1940.41228878 Ry
     estimated scf accuracy    <       1.39585424 Ry

     total magnetization       =     3.00 Bohr mag/cell
     absolute magnetization    =     3.22 Bohr mag/cell

     iteration #  4     ecut=    40.00 Ry     beta= 0.70
     CG style diagonalization
     ethr =  3.57E-04,  avg # of iterations =  4.2

     negative rho (up, down):  4.536E-01 1.166E-02

     total cpu time spent up to now is      153.6 secs

     total energy              =   -1939.95035940 Ry
     Harris-Foulkes estimate   =   -1940.47036302 Ry
     estimated scf accuracy    <       1.66646308 Ry

     total magnetization       =     3.00 Bohr mag/cell
     absolute magnetization    =     3.20 Bohr mag/cell

     iteration #  5     ecut=    40.00 Ry     beta= 0.70
     CG style diagonalization
     ethr =  3.57E-04,  avg # of iterations =  3.2

     negative rho (up, down):  4.633E-01 1.142E-02

     total cpu time spent up to now is      180.1 secs

     total energy              =   -1940.17894432 Ry
     Harris-Foulkes estimate   =   -1940.21053835 Ry
     estimated scf accuracy    <       0.09058149 Ry

     total magnetization       =     3.00 Bohr mag/cell
     absolute magnetization    =     3.20 Bohr mag/cell

     iteration #  6     ecut=    40.00 Ry     beta= 0.70
     CG style diagonalization
     c_bands:  4 eigenvalues not converged
     c_bands:  2 eigenvalues not converged
     ethr =  2.32E-05,  avg # of iterations =  4.2

     negative rho (up, down):  4.747E-01 1.223E-02

     total cpu time spent up to now is      218.4 secs

     total energy              =   -1940.19313789 Ry
     Harris-Foulkes estimate   =   -1940.19486323 Ry
     estimated scf accuracy    <       0.01710609 Ry

     total magnetization       =     3.00 Bohr mag/cell
     absolute magnetization    =     3.19 Bohr mag/cell

     iteration #  7     ecut=    40.00 Ry     beta= 0.70
     CG style diagonalization
     c_bands:  5 eigenvalues not converged
     c_bands:  5 eigenvalues not converged
     ethr =  4.37E-06,  avg # of iterations =  6.4

     negative rho (up, down):  4.799E-01 1.279E-02

     total cpu time spent up to now is      275.6 secs

     total energy              =   -1940.19713321 Ry
     Harris-Foulkes estimate   =   -1940.19835724 Ry
     estimated scf accuracy    <       0.00512743 Ry

     total magnetization       =     3.00 Bohr mag/cell
     absolute magnetization    =     3.17 Bohr mag/cell

     iteration #  8     ecut=    40.00 Ry     beta= 0.70
     CG style diagonalization
     c_bands:  2 eigenvalues not converged
     c_bands:  4 eigenvalues not converged
     ethr =  1.31E-06,  avg # of iterations =  5.9

     negative rho (up, down):  4.816E-01 1.296E-02

     total cpu time spent up to now is      327.0 secs

     total energy              =   -1940.19825590 Ry
     Harris-Foulkes estimate   =   -1940.19853316 Ry
     estimated scf accuracy    <       0.00101552 Ry

     total magnetization       =     3.00 Bohr mag/cell
     absolute magnetization    =     3.17 Bohr mag/cell

     iteration #  9     ecut=    40.00 Ry     beta= 0.70
     CG style diagonalization
     c_bands:  2 eigenvalues not converged
     c_bands:  2 eigenvalues not converged
     ethr =  2.60E-07,  avg # of iterations =  3.7

     negative rho (up, down):  4.824E-01 1.307E-02

     total cpu time spent up to now is      360.1 secs

     total energy              =   -1940.19857887 Ry
     Harris-Foulkes estimate   =   -1940.19871658 Ry
     estimated scf accuracy    <       0.00061249 Ry

     total magnetization       =     3.00 Bohr mag/cell
     absolute magnetization    =     3.17 Bohr mag/cell

     iteration # 10     ecut=    40.00 Ry     beta= 0.70
     CG style diagonalization
     c_bands:  1 eigenvalues not converged
     ethr =  1.57E-07,  avg # of iterations =  3.4

     negative rho (up, down):  4.825E-01 1.314E-02

     total cpu time spent up to now is      389.1 secs

     total energy              =   -1940.19872177 Ry
     Harris-Foulkes estimate   =   -1940.19871792 Ry
     estimated scf accuracy    <       0.00004939 Ry

     total magnetization       =     3.00 Bohr mag/cell
     absolute magnetization    =     3.17 Bohr mag/cell

     iteration # 11     ecut=    40.00 Ry     beta= 0.70
     CG style diagonalization
     c_bands:  1 eigenvalues not converged
     ethr =  1.26E-08,  avg # of iterations =  3.7

     negative rho (up, down):  4.826E-01 1.318E-02

     total cpu time spent up to now is      421.9 secs

     total energy              =   -1940.19874373 Ry
     Harris-Foulkes estimate   =   -1940.19873895 Ry
     estimated scf accuracy    <       0.00001058 Ry

     total magnetization       =     3.00 Bohr mag/cell
     absolute magnetization    =     3.17 Bohr mag/cell

     iteration # 12     ecut=    40.00 Ry     beta= 0.70
     CG style diagonalization
     ethr =  2.71E-09,  avg # of iterations =  3.7

     negative rho (up, down):  4.826E-01 1.318E-02

     total cpu time spent up to now is      454.3 secs

     total energy              =   -1940.19874866 Ry
     Harris-Foulkes estimate   =   -1940.19874797 Ry
     estimated scf accuracy    <       0.00000229 Ry

     total magnetization       =     3.00 Bohr mag/cell
     absolute magnetization    =     3.17 Bohr mag/cell

     iteration # 13     ecut=    40.00 Ry     beta= 0.70
     CG style diagonalization
     ethr =  5.87E-10,  avg # of iterations =  3.8

     negative rho (up, down):  4.825E-01 1.318E-02
 
     Magnetic moment per site:
     atom:    1    charge:    0.8567    magn:   -0.0000    constr:    0.0000
     atom:    2    charge:    0.8512    magn:    0.0014    constr:    0.0000
     atom:    3    charge:    0.8522    magn:    0.0012    constr:    0.0000
     atom:    4    charge:    0.8545    magn:    0.0001    constr:    0.0000
     atom:    5    charge:    0.8571    magn:    0.0006    constr:    0.0000
     atom:    6    charge:    0.8557    magn:    0.0000    constr:    0.0000
     atom:    7    charge:    0.8568    magn:    0.0007    constr:    0.0000
     atom:    8    charge:    0.8556    magn:    0.0006    constr:    0.0000
     atom:    9    charge:    0.8568    magn:    0.0003    constr:    0.0000
     atom:   10    charge:    0.8481    magn:    0.0073    constr:    0.0000
     atom:   11    charge:    0.8526    magn:    0.0006    constr:    0.0000
     atom:   12    charge:    0.8573    magn:    0.0004    constr:    0.0000
     atom:   13    charge:    0.8574    magn:   -0.0001    constr:    0.0000
     atom:   14    charge:    0.8557    magn:    0.0000    constr:    0.0000
     atom:   15    charge:    0.8559    magn:    0.0007    constr:    0.0000
     atom:   16    charge:    0.8608    magn:    0.0037    constr:    0.0000
     atom:   17    charge:    0.8685    magn:    0.0133    constr:    0.0000
     atom:   18    charge:    0.8570    magn:    0.0154    constr:    0.0000
     atom:   19    charge:    0.8642    magn:    0.0032    constr:    0.0000
     atom:   20    charge:    0.8573    magn:    0.0004    constr:    0.0000
     atom:   21    charge:    0.8571    magn:    0.0006    constr:    0.0000
     atom:   22    charge:    0.8525    magn:    0.0001    constr:    0.0000
     atom:   23    charge:    0.8493    magn:    0.0004    constr:    0.0000
     atom:   24    charge:    0.8451    magn:    0.0117    constr:    0.0000
     atom:   25    charge:    1.5938    magn:    0.1956    constr:    0.0000
     atom:   26    charge:    0.8570    magn:    0.0156    constr:    0.0000
     atom:   27    charge:    0.8526    magn:    0.0006    constr:    0.0000
     atom:   28    charge:    0.8545    magn:    0.0001    constr:    0.0000
     atom:   29    charge:    0.8524    magn:    0.0006    constr:    0.0000
     atom:   30    charge:    0.8528    magn:    0.0011    constr:    0.0000
     atom:   31    charge:    0.8514    magn:    0.0054    constr:    0.0000
     atom:   32    charge:    0.8451    magn:    0.0116    constr:    0.0000
     atom:   33    charge:    0.8685    magn:    0.0134    constr:    0.0000
     atom:   34    charge:    0.8481    magn:    0.0073    constr:    0.0000
     atom:   35    charge:    0.8522    magn:    0.0012    constr:    0.0000
     atom:   36    charge:    0.8518    magn:    0.0003    constr:    0.0000
     atom:   37    charge:    0.8513    magn:    0.0003    constr:    0.0000
     atom:   38    charge:    0.8528    magn:    0.0011    constr:    0.0000
     atom:   39    charge:    0.8493    magn:    0.0004    constr:    0.0000
     atom:   40    charge:    0.8608    magn:    0.0037    constr:    0.0000
     atom:   41    charge:    0.8568    magn:    0.0003    constr:    0.0000
     atom:   42    charge:    0.8512    magn:    0.0014    constr:    0.0000
     atom:   43    charge:    0.8518    magn:    0.0006    constr:    0.0000
     atom:   44    charge:    0.8518    magn:    0.0003    constr:    0.0000
     atom:   45    charge:    0.8524    magn:    0.0006    constr:    0.0000
     atom:   46    charge:    0.8525    magn:    0.0001    constr:    0.0000
     atom:   47    charge:    0.8559    magn:    0.0007    constr:    0.0000
     atom:   48    charge:    0.8556    magn:    0.0006    constr:    0.0000
     atom:   49    charge:    0.8567    magn:   -0.0000    constr:    0.0000
     atom:   50    charge:    2.6634    magn:    0.0005    constr:    0.0000
     atom:   51    charge:    2.6637    magn:   -0.0005    constr:    0.0000
     atom:   52    charge:    2.6517    magn:    0.0057    constr:    0.0000
     atom:   53    charge:    2.6625    magn:    0.0008    constr:    0.0000
     atom:   54    charge:    2.6637    magn:    0.0004    constr:    0.0000
     atom:   55    charge:    2.6547    magn:    0.0006    constr:    0.0000
     atom:   56    charge:    2.6583    magn:    0.0002    constr:    0.0000
     atom:   57    charge:    2.6600    magn:    0.0019    constr:    0.0000
     atom:   58    charge:    2.6599    magn:    0.0080    constr:    0.0000
     atom:   59    charge:    2.6532    magn:    0.0205    constr:    0.0000
     atom:   60    charge:    2.6532    magn:    0.0098    constr:    0.0000
     atom:   61    charge:    2.6593    magn:    0.0118    constr:    0.0000
     atom:   62    charge:    2.6546    magn:    0.0055    constr:    0.0000
     atom:   63    charge:    2.6547    magn:    0.0006    constr:    0.0000
     atom:   64    charge:    2.6629    magn:    0.0002    constr:    0.0000
     atom:   65    charge:    2.6630    magn:    0.0033    constr:    0.0000
     atom:   66    charge:    2.6617    magn:    0.0206    constr:    0.0000
     atom:   67    charge:    1.7643    magn:    0.1872    constr:    0.0000
     atom:   68    charge:    2.6512    magn:    0.0690    constr:    0.0000
     atom:   69    charge:    2.6592    magn:    0.0119    constr:    0.0000
     atom:   70    charge:    2.6637    magn:    0.0003    constr:    0.0000
     atom:   71    charge:    2.6630    magn:    0.0001    constr:    0.0000
     atom:   72    charge:    2.6580    magn:   -0.0000    constr:    0.0000
     atom:   73    charge:    2.6528    magn:    0.0087    constr:    0.0000
     atom:   74    charge:    2.6255    magn:    0.0859    constr:    0.0000
     atom:   75    charge:    1.7643    magn:    0.1868    constr:    0.0000
     atom:   76    charge:    2.6532    magn:    0.0097    constr:    0.0000
     atom:   77    charge:    2.6626    magn:    0.0008    constr:    0.0000
     atom:   78    charge:    2.6604    magn:    0.0002    constr:    0.0000
     atom:   79    charge:    2.6578    magn:    0.0000    constr:    0.0000
     atom:   80    charge:    2.6498    magn:    0.0034    constr:    0.0000
     atom:   81    charge:    2.6527    magn:    0.0088    constr:    0.0000
     atom:   82    charge:    2.6617    magn:    0.0205    constr:    0.0000
     atom:   83    charge:    2.6533    magn:    0.0204    constr:    0.0000
     atom:   84    charge:    2.6517    magn:    0.0057    constr:    0.0000
     atom:   85    charge:    2.6595    magn:    0.0003    constr:    0.0000
     atom:   86    charge:    2.6586    magn:    0.0000    constr:    0.0000
     atom:   87    charge:    2.6578    magn:    0.0000    constr:    0.0000
     atom:   88    charge:    2.6580    magn:   -0.0000    constr:    0.0000
     atom:   89    charge:    2.6630    magn:    0.0033    constr:    0.0000
     atom:   90    charge:    2.6600    magn:    0.0080    constr:    0.0000
     atom:   91    charge:    2.6638    magn:   -0.0005    constr:    0.0000
     atom:   92    charge:    2.6643    magn:   -0.0001    constr:    0.0000
     atom:   93    charge:    2.6595    magn:    0.0003    constr:    0.0000
     atom:   94    charge:    2.6604    magn:    0.0002    constr:    0.0000
     atom:   95    charge:    2.6630    magn:    0.0001    constr:    0.0000
     atom:   96    charge:    2.6629    magn:    0.0002    constr:    0.0000
     atom:   97    charge:    2.6600    magn:    0.0019    constr:    0.0000
     atom:   98    charge:    2.6634    magn:    0.0005    constr:    0.0000

     total cpu time spent up to now is      487.2 secs

     End of self-consistent calculation

 ------ SPIN UP ------------


          k = 0.0000 0.0000 0.0000 ( 77471 PWs)   bands (ev):

   -21.8578 -21.6354 -21.3796 -21.3723 -21.3544 -21.2948 -21.2781 -20.8803
   -20.6467 -20.6351 -20.6138 -20.5381 -20.5325 -20.4134 -20.2809 -20.2799
   -20.2646 -20.1246 -20.1119 -19.5895 -19.4037 -19.3896 -19.3802 -19.3768
   -19.3681 -19.3590 -19.3576 -19.3176 -19.3087 -19.1630 -19.1493 -19.0259
   -18.9602 -18.9570 -18.9364 -18.7658 -18.7597 -18.5387 -18.5316 -18.5133
   -18.5123 -18.4562 -18.4184 -18.3817 -18.3522 -18.3323 -18.3288 -16.9545
   -15.1133 -13.2237 -12.7673 -12.7643 -12.7359 -12.7062 -12.6991 -12.6410
   -12.5508 -12.5199 -12.5132 -12.4892 -12.4100 -12.1478 -12.0552 -12.0507
   -12.0136 -11.9845 -11.9430 -11.5640 -11.4192 -11.4083 -11.3811 -11.3801
   -11.3541 -11.3539 -11.3493 -11.3126 -11.2995 -11.1023 -11.0609 -10.8693
   -10.7105 -10.6958 -10.6669 -10.6550 -10.5122 -10.0689 -10.0284 -10.0033
    -9.9329  -9.8801  -9.8200  -9.3941  -9.3548  -9.3142  -9.3101  -9.2775
    -9.2663  -9.2139  -9.0557  -8.9961  -8.9489  -8.9085  -8.8966  -8.8880
    -8.8862  -8.8788  -8.8709  -8.8469  -8.8178  -8.8162  -8.8127  -8.8120
    -8.7952  -8.7906  -8.7898  -8.7568  -8.7526  -8.7289  -8.6633  -8.6426
    -8.4697  -8.4683  -8.2038  -8.1789  -8.1757  -8.1099  -8.0820  -8.0120
    -7.8791  -7.8229  -7.8228  -7.7960  -7.7509  -7.7301  -7.5626  -7.5061
    -7.4899  -7.4669  -7.4566  -7.4349  -7.4212  -7.3878  -7.3865  -7.3403
    -7.3369  -7.3355  -7.3267  -7.2806  -7.2735  -7.2296  -7.2237  -7.0416
    -7.0195  -6.9863  -6.9156  -6.8247  -6.6611  -6.5668  -6.3163  -6.1866
    -6.1770  -6.1419  -6.0821  -6.0791  -6.0699  -6.0571  -6.0531  -6.0484
    -6.0363  -6.0308  -6.0224  -5.9972  -5.9385  -5.8337  -5.8233  -5.7331
    -5.5425  -5.4442  -5.4398  -5.4346  -5.3902  -5.2932  -5.1838  -5.1459
    -4.8019  -4.7902  -4.7707  -4.7530  -4.7177  -4.6697  -4.5675  -4.5129
    -4.5105  -4.4906  -4.4891  -3.8075  -0.2866   0.1797   0.6631   0.6713
     0.7084   0.7224   0.7257   0.7327   0.7935   0.7946   0.8093   0.8156
     0.8203   0.8336   0.8400   0.8496   0.8711   0.8868   0.9101   0.9151
     0.9370   1.1108   1.1929   1.2143   1.2302   1.2484   1.2895   1.3221
     1.3280   1.3318   1.3418   1.3526   1.3796   1.4379   1.4403   1.4435
     1.4505   1.4578   1.4746   1.8836   2.0385   2.0967   2.1010   2.1123
     2.1128   2.1249   2.1310   2.2079   2.2642

 ------ SPIN DOWN ----------


          k = 0.0000 0.0000 0.0000 ( 77471 PWs)   bands (ev):

   -21.7544 -21.5414 -21.3744 -21.3653 -21.3488 -21.2769 -21.2253 -20.8210
   -20.6369 -20.6167 -20.6010 -20.5276 -20.5123 -20.3977 -20.2669 -20.2637
   -20.2407 -20.0898 -20.0750 -19.5443 -19.3941 -19.3788 -19.3739 -19.3681
   -19.3587 -19.3514 -19.3379 -19.2913 -19.2867 -19.1386 -19.1359 -19.0104
   -18.9485 -18.9482 -18.9104 -18.7451 -18.7306 -18.5252 -18.5188 -18.4987
   -18.4918 -18.4464 -18.3967 -18.3738 -18.3427 -18.3228 -18.3086 -16.4077
   -14.6015 -13.0458 -12.7555 -12.7489 -12.7283 -12.6989 -12.6929 -12.6260
   -12.5399 -12.5071 -12.4993 -12.4498 -12.3853 -12.1258 -12.0427 -12.0361
   -12.0024 -11.9598 -11.9152 -11.5195 -11.3942 -11.3831 -11.3731 -11.3634
   -11.3496 -11.3417 -11.3407 -11.2897 -11.2678 -11.0325 -11.0070 -10.8443
   -10.7017 -10.6906 -10.6520 -10.6208 -10.4779 -10.0450 -10.0055  -9.9847
    -9.9021  -9.8416  -9.7855  -9.3750  -9.2957  -9.2818  -9.2785  -9.2664
    -9.2593  -9.2045  -9.0294  -8.9248  -8.8913  -8.8912  -8.8818  -8.8727
    -8.8643  -8.8624  -8.8345  -8.8278  -8.8051  -8.8050  -8.8049  -8.7875
    -8.7818  -8.7798  -8.7774  -8.7043  -8.6980  -8.6248  -8.6007  -8.5402
    -8.4437  -8.4094  -8.2001  -8.1728  -8.1725  -8.0591  -8.0543  -7.8493
    -7.8239  -7.7997  -7.7751  -7.7645  -7.6844  -7.6405  -7.5359  -7.4917
    -7.4783  -7.4507  -7.4307  -7.4182  -7.3810  -7.3787  -7.3697  -7.3277
    -7.3022  -7.2964  -7.2730  -7.2641  -7.2004  -7.1365  -7.0698  -7.0142
    -7.0108  -6.9802  -6.8350  -6.7628  -6.6207  -6.5205  -6.1737  -6.1636
    -6.1374  -6.1298  -6.0554  -6.0423  -6.0345  -6.0315  -6.0281  -6.0230
    -6.0112  -5.9923  -5.9480  -5.9412  -5.7941  -5.7502  -5.7436  -5.6865
    -5.4771  -5.4193  -5.4065  -5.3855  -5.1891  -5.1765  -5.0769  -5.0046
    -4.7548  -4.7429  -4.7251  -4.7186  -4.6378  -4.6067  -4.5286  -4.4840
    -4.4700  -4.4626  -3.8230  -2.6932   0.1895   0.5382   0.7135   0.7262
     0.7376   0.7554   0.7698   0.7763   0.7932   0.8112   0.8158   0.8221
     0.8323   0.8387   0.8607   0.8756   0.9079   0.9408   0.9422   0.9707
     1.0460   1.1951   1.2550   1.2840   1.2893   1.3222   1.3265   1.3315
     1.3422   1.3459   1.3493   1.3866   1.4110   1.4358   1.4377   1.4413
     1.4487   1.4565   1.4852   1.8893   2.1026   2.1063   2.1151   2.1232
     2.1455   2.1593   2.2146   2.2267   2.3172

     highest occupied, lowest unoccupied level (ev):    -0.2866   -3.8230

!    total energy              =   -1940.19874964 Ry
     Harris-Foulkes estimate   =   -1940.19874974 Ry
     estimated scf accuracy    <       0.00000092 Ry

     total all-electron energy =     -7770.023226 Ry

     The total energy is the sum of the following terms:

     one-electron contribution =  -10644.10930043 Ry
     hartree contribution      =    5407.82822240 Ry
     xc contribution           =    -430.73035470 Ry
     ewald contribution        =    4370.25804525 Ry
     DFT-D3 Dispersion         =      -0.27012906 Ry
     one-center paw contrib.   =    -643.17523310 Ry

     total magnetization       =     3.00 Bohr mag/cell
     absolute magnetization    =     3.17 Bohr mag/cell

     convergence has been achieved in  13 iterations

     negative rho (up, down):  4.825E-01 1.318E-02

     Forces acting on atoms (cartesian axes, Ry/au):

     atom    1 type  1   force =    -0.00021592   -0.00038627    0.00000000
     atom    2 type  1   force =    -0.00044095   -0.00040915    0.00000000
     atom    3 type  1   force =    -0.00050014   -0.00006152    0.00000000
     atom    4 type  1   force =    -0.00010762    0.00006353    0.00000000
     atom    5 type  1   force =     0.00039363   -0.00051080    0.00000000
     atom    6 type  1   force =     0.00025115   -0.00009044    0.00000000
     atom    7 type  1   force =    -0.00028409    0.00018026    0.00000000
     atom    8 type  1   force =    -0.00027926    0.00006445    0.00000000
     atom    9 type  1   force =    -0.00018736   -0.00023109    0.00000000
     atom   10 type  1   force =    -0.00048553   -0.00032746    0.00000000
     atom   11 type  1   force =    -0.00046970   -0.00024324    0.00000000
     atom   12 type  1   force =     0.00043600   -0.00020908    0.00000000
     atom   13 type  1   force =     0.00049754   -0.00027934    0.00000000
     atom   14 type  1   force =     0.00021252   -0.00015975    0.00000000
     atom   15 type  1   force =     0.00007387   -0.00012846    0.00000000
     atom   16 type  1   force =    -0.00013475   -0.00020817    0.00000000
     atom   17 type  1   force =    -0.00001444   -0.00047731    0.00000000
     atom   18 type  1   force =    -0.00034644   -0.00028061    0.00000000
     atom   19 type  1   force =    -0.00039299    0.00022064    0.00000000
     atom   20 type  1   force =     0.00039217   -0.00026404    0.00000000
     atom   21 type  1   force =     0.00063675   -0.00007840    0.00000000
     atom   22 type  1   force =     0.00042237   -0.00035292    0.00000000
     atom   23 type  1   force =    -0.00004558    0.00014680    0.00000000
     atom   24 type  1   force =     0.00001008   -0.00021165    0.00000000
     atom   25 type  4   force =     0.00049318   -0.00019579    0.00000000
     atom   26 type  1   force =     0.00011472    0.00043123    0.00000000
     atom   27 type  1   force =    -0.00000879    0.00053870    0.00000000
     atom   28 type  1   force =    -0.00011209    0.00006628    0.00000000
     atom   29 type  1   force =     0.00003201    0.00011970    0.00000000
     atom   30 type  1   force =     0.00008668   -0.00016445    0.00000000
     atom   31 type  1   force =    -0.00009390    0.00003192    0.00000000
     atom   32 type  1   force =     0.00018460    0.00010031    0.00000000
     atom   33 type  1   force =     0.00038286    0.00025034    0.00000000
     atom   34 type  1   force =     0.00003966    0.00056693    0.00000000
     atom   35 type  1   force =    -0.00021467    0.00046297    0.00000000
     atom   36 type  1   force =    -0.00014958    0.00020470    0.00000000
     atom   37 type  1   force =     0.00003616   -0.00002259    0.00000000
     atom   38 type  1   force =     0.00018790    0.00000048    0.00000000
     atom   39 type  1   force =    -0.00013742   -0.00003206    0.00000000
     atom   40 type  1   force =     0.00009819    0.00020551    0.00000000
     atom   41 type  1   force =     0.00007409    0.00026829    0.00000000
     atom   42 type  1   force =     0.00012550    0.00058998    0.00000000
     atom   43 type  1   force =    -0.00003101    0.00002382    0.00000000
     atom   44 type  1   force =    -0.00024752    0.00002429    0.00000000
     atom   45 type  1   force =    -0.00008336   -0.00009668    0.00000000
     atom   46 type  1   force =     0.00051708   -0.00019812    0.00000000
     atom   47 type  1   force =     0.00014539   -0.00000163    0.00000000
     atom   48 type  1   force =    -0.00018688    0.00022200    0.00000000
     atom   49 type  1   force =     0.00023386    0.00039820    0.00000000
     atom   50 type  2   force =     0.00055512    0.00003846    0.00000000
     atom   51 type  2   force =     0.00043114    0.00017331    0.00000000
     atom   52 type  2   force =    -0.00012895   -0.00012152    0.00000000
     atom   53 type  2   force =     0.00003264    0.00002381    0.00000000
     atom   54 type  2   force =     0.00052306    0.00024197    0.00000000
     atom   55 type  2   force =     0.00015750    0.00004935    0.00000000
     atom   56 type  2   force =     0.00028600   -0.00017839    0.00000000
     atom   57 type  2   force =    -0.00007945   -0.00011992    0.00000000
     atom   58 type  2   force =     0.00003117    0.00002304    0.00000000
     atom   59 type  2   force =    -0.00016717   -0.00033930    0.00000000
     atom   60 type  2   force =    -0.00016077   -0.00013566    0.00000000
     atom   61 type  2   force =    -0.00001866   -0.00015323    0.00000000
     atom   62 type  2   force =     0.00021398   -0.00013452    0.00000000
     atom   63 type  2   force =     0.00002836   -0.00017513    0.00000000
     atom   64 type  2   force =    -0.00037542   -0.00008589    0.00000000
     atom   65 type  2   force =    -0.00036958   -0.00004157    0.00000000
     atom   66 type  2   force =    -0.00007751    0.00004689    0.00000000
     atom   67 type  3   force =    -0.00024992   -0.00037145    0.00000000
     atom   68 type  2   force =    -0.00008180    0.00001846    0.00000000
     atom   69 type  2   force =     0.00012248    0.00007747    0.00000000
     atom   70 type  2   force =     0.00005490   -0.00057842    0.00000000
     atom   71 type  2   force =     0.00002647   -0.00038889    0.00000000
     atom   72 type  2   force =    -0.00053255    0.00003055    0.00000000
     atom   73 type  2   force =    -0.00047992    0.00002382    0.00000000
     atom   74 type  2   force =    -0.00022245    0.00012162    0.00000000
     atom   75 type  5   force =     0.00020780    0.00036879    0.00000000
     atom   76 type  2   force =     0.00007818    0.00023356    0.00000000
     atom   77 type  2   force =     0.00001797   -0.00003799    0.00000000
     atom   78 type  2   force =    -0.00007128   -0.00036208    0.00000000
     atom   79 type  2   force =    -0.00037550    0.00016882    0.00000000
     atom   80 type  2   force =    -0.00042830    0.00024143    0.00000000
     atom   81 type  2   force =    -0.00027589    0.00041246    0.00000000
     atom   82 type  2   force =    -0.00007439    0.00007347    0.00000000
     atom   83 type  2   force =     0.00021928    0.00033915    0.00000000
     atom   84 type  2   force =     0.00006701    0.00015708    0.00000000
     atom   85 type  2   force =    -0.00023018   -0.00036963    0.00000000
     atom   86 type  2   force =    -0.00012707    0.00007294    0.00000000
     atom   87 type  2   force =    -0.00033421    0.00024292    0.00000000
     atom   88 type  2   force =    -0.00028496    0.00045671    0.00000000
     atom   89 type  2   force =    -0.00014276    0.00035867    0.00000000
     atom   90 type  2   force =    -0.00002733   -0.00003913    0.00000000
     atom   91 type  2   force =     0.00004919   -0.00049026    0.00000000
     atom   92 type  2   force =     0.00033240   -0.00020879    0.00000000
     atom   93 type  2   force =     0.00018985    0.00037611    0.00000000
     atom   94 type  2   force =     0.00026773    0.00024679    0.00000000
     atom   95 type  2   force =     0.00034697    0.00018267    0.00000000
     atom   96 type  2   force =    -0.00011378    0.00037399    0.00000000
     atom   97 type  2   force =     0.00005502    0.00012001    0.00000000
     atom   98 type  2   force =     0.00022760   -0.00052290    0.00000000

     Total force =     0.003734     Total SCF correction =     0.001974
     SCF correction compared to forces is large: reduce conv_thr to get better values


     Computing stress (Cartesian axis) and pressure


     negative rho (up, down):  4.825E-01 1.318E-02
          total   stress  (Ry/bohr**3)                   (kbar)     P=   -0.13
   0.00000035   0.00000001   0.00000000          0.05      0.00      0.00
   0.00000001   0.00000036   0.00000000          0.00      0.05      0.00
   0.00000000   0.00000000  -0.00000344          0.00      0.00     -0.51


     BFGS Geometry Optimization

     number of scf cycles    =   1
     number of bfgs steps    =   0

     enthalpy new            =   -1940.1987496352 Ry

     new trust radius        =       0.0006448742 bohr
     new conv_thr            =       0.0000010000 Ry

     new unit-cell volume =  36235.87770 a.u.^3 (  5369.60301 Ang^3 )
     density =      0.36306 g/cm^3

CELL_PARAMETERS (alat= 33.23461096)
   1.001021019   0.000223107   0.000000000
  -0.500317294   0.867021179   0.000000000
   0.000000000   0.000000000   1.137203616

ATOMIC_POSITIONS (crystal)
B        0.047242029   0.094677948   0.500000000
B        0.047357356   0.237790451   0.500000000
B        0.047314920   0.380934842   0.500000000
B        0.047162696   0.523756700   0.500000000
B        0.047608255   0.666661130   0.500000000
B        0.047871798   0.809656744   0.500000000
B        0.047673853   0.952326830   0.500000000
B        0.189893698   0.094317156   0.500000000
B        0.189147338   0.236415088   0.500000000
B        0.190075704   0.380729424   0.500000000
B        0.189419770   0.523775036   0.500000000
B        0.189645971   0.666857316   0.500000000
B        0.190321258   0.809678978   0.500000000
B        0.190343578   0.952128497   0.500000000
B        0.333220171   0.094344565   0.500000000
B        0.332629989   0.235937939   0.500000000
B        0.331112424   0.376754814   0.500000000
B        0.332156510   0.525265483   0.500000000
B        0.331900956   0.668098632   0.500000000
B        0.333142520   0.810354207   0.500000000
B        0.333338866   0.952391901   0.500000000
B        0.476275185   0.095148336   0.500000000
B        0.476083873   0.237673732   0.500000000
B        0.475059081   0.379717225   0.500000000
C2       0.477710246   0.522294457   0.500000000
B        0.474735714   0.667843165   0.500000000
B        0.476225611   0.810580546   0.500000000
B        0.476243343   0.952837429   0.500000000
B        0.618995323   0.095272038   0.500000000
B        0.619060848   0.238003415   0.500000000
B        0.619090914   0.380908001   0.500000000
B        0.620282789   0.524941112   0.500000000
B        0.623244578   0.668887609   0.500000000
B        0.619270338   0.809923717   0.500000000
B        0.619064675   0.952685036   0.500000000
B        0.761878216   0.095284316   0.500000000
B        0.761866521   0.238133397   0.500000000
B        0.761996563   0.380938990   0.500000000
B        0.762326744   0.523916281   0.500000000
B        0.764061467   0.667369562   0.500000000
B        0.763583854   0.810852347   0.500000000
B        0.762209372   0.952642704   0.500000000
B        0.904824133   0.095176122   0.500000000
B        0.904715729   0.238121682   0.500000000
B        0.904727937   0.381004444   0.500000000
B        0.904851553   0.523724608   0.500000000
B        0.905655337   0.666779781   0.500000000
B        0.905683303   0.810106670   0.500000000
B        0.905322525   0.952758479   0.500000000
N        0.094947178   0.047205871   0.500000000
N        0.094387633   0.189584221   0.500000000
N        0.094918495   0.333163249   0.500000000
N        0.094496460   0.476076447   0.500000000
N        0.094713356   0.618947077   0.500000000
N        0.095231111   0.761918349   0.500000000
N        0.095280380   0.904719175   0.500000000
N        0.237947180   0.047104885   0.500000000
N        0.237300358   0.189181958   0.500000000
N        0.236395123   0.331305117   0.500000000
N        0.236964647   0.476283370   0.500000000
N        0.236825921   0.619302470   0.500000000
N        0.237816343   0.762183157   0.500000000
N        0.238081295   0.904768568   0.500000000
N        0.381109974   0.047357692   0.500000000
N        0.380935044   0.189248780   0.500000000
N        0.379900000   0.330240877   0.500000000
C1       0.382306198   0.475630752   0.500000000
N        0.378981262   0.621017255   0.500000000
N        0.380697217   0.763173579   0.500000000
N        0.381052947   0.905286595   0.500000000
N        0.523933157   0.047855316   0.500000000
N        0.523917265   0.190459879   0.500000000
N        0.523681960   0.333432272   0.500000000
N        0.523333707   0.476665941   0.500000000
C3       0.524368993   0.617692599   0.500000000
N        0.523718325   0.763036268   0.500000000
N        0.523924231   0.905503681   0.500000000
N        0.666694554   0.047807568   0.500000000
N        0.666657051   0.190523038   0.500000000
N        0.666607578   0.333392050   0.500000000
N        0.666567366   0.476318303   0.500000000
N        0.669759683   0.620100996   0.500000000
N        0.668695503   0.763605684   0.500000000
N        0.666837222   0.905080990   0.500000000
N        0.809599974   0.047749939   0.500000000
N        0.809477473   0.190522445   0.500000000
N        0.809476900   0.333342935   0.500000000
N        0.809540428   0.476083006   0.500000000
N        0.810751572   0.619065486   0.500000000
N        0.810817250   0.762699607   0.500000000
N        0.810414768   0.905611398   0.500000000
N        0.952394455   0.047604847   0.500000000
N        0.952249512   0.190399743   0.500000000
N        0.952192191   0.333305513   0.500000000
N        0.952144753   0.476067150   0.500000000
N        0.952642381   0.618890197   0.500000000
N        0.952894758   0.762052580   0.500000000
N        0.952793427   0.905052244   0.500000000



     Writing output data file C2Cn.save/
     NEW-OLD atomic charge density approx. for the potential
     NEW k-points:
   0.0000000   0.0000000   0.0000000   1.0000000
   0.0000000   0.0000000   0.0000000   1.0000000

     Check: negative core charge=   -0.000006

     negative rho (up, down):  4.825E-01 6.708E-03
     extrapolated charge  391.00698, renormalised to  391.00000

     total cpu time spent up to now is      507.9 secs

     Self-consistent Calculation

     iteration #  1     ecut=    40.00 Ry     beta= 0.70
     CG style diagonalization
     ethr =  1.00E-06,  avg # of iterations =  2.0

     Threshold (ethr) on eigenvalues was too large:
     Diagonalizing with lowered threshold

     CG style diagonalization
     ethr =  8.81E-10,  avg # of iterations = 18.5

     negative rho (up, down):  4.824E-01 1.218E-02

     total cpu time spent up to now is      723.3 secs

     total energy              =   -1940.19875165 Ry
     Harris-Foulkes estimate   =   -1940.01453090 Ry
     estimated scf accuracy    <       0.00001238 Ry

     total magnetization       =     3.00 Bohr mag/cell
     absolute magnetization    =     3.17 Bohr mag/cell

     iteration #  2     ecut=    40.00 Ry     beta= 0.70
     CG style diagonalization
     ethr =  3.17E-09,  avg # of iterations =  3.9

     negative rho (up, down):  4.825E-01 1.241E-02

     total cpu time spent up to now is      757.9 secs

     total energy              =   -1940.19875283 Ry
     Harris-Foulkes estimate   =   -1940.19876461 Ry
     estimated scf accuracy    <       0.00002533 Ry

     total magnetization       =     3.00 Bohr mag/cell
     absolute magnetization    =     3.17 Bohr mag/cell

     iteration #  3     ecut=    40.00 Ry     beta= 0.70
     CG style diagonalization
     ethr =  3.17E-09,  avg # of iterations =  3.5

     negative rho (up, down):  4.825E-01 1.266E-02

     total cpu time spent up to now is      787.6 secs

     total energy              =   -1940.19875717 Ry
     Harris-Foulkes estimate   =   -1940.19875823 Ry
     estimated scf accuracy    <       0.00000154 Ry

     total magnetization       =     3.00 Bohr mag/cell
     absolute magnetization    =     3.17 Bohr mag/cell

     iteration #  4     ecut=    40.00 Ry     beta= 0.70
     CG style diagonalization
     ethr =  3.93E-10,  avg # of iterations =  3.4

     negative rho (up, down):  4.825E-01 1.317E-02
 
     Magnetic moment per site:
     atom:    1    charge:    0.8566    magn:   -0.0000    constr:    0.0000
     atom:    2    charge:    0.8513    magn:    0.0014    constr:    0.0000
     atom:    3    charge:    0.8523    magn:    0.0012    constr:    0.0000
     atom:    4    charge:    0.8545    magn:    0.0001    constr:    0.0000
     atom:    5    charge:    0.8570    magn:    0.0006    constr:    0.0000
     atom:    6    charge:    0.8557    magn:    0.0000    constr:    0.0000
     atom:    7    charge:    0.8567    magn:    0.0007    constr:    0.0000
     atom:    8    charge:    0.8557    magn:    0.0006    constr:    0.0000
     atom:    9    charge:    0.8569    magn:    0.0003    constr:    0.0000
     atom:   10    charge:    0.8480    magn:    0.0073    constr:    0.0000
     atom:   11    charge:    0.8527    magn:    0.0006    constr:    0.0000
     atom:   12    charge:    0.8575    magn:    0.0004    constr:    0.0000
     atom:   13    charge:    0.8574    magn:   -0.0000    constr:    0.0000
     atom:   14    charge:    0.8557    magn:    0.0000    constr:    0.0000
     atom:   15    charge:    0.8560    magn:    0.0007    constr:    0.0000
     atom:   16    charge:    0.8609    magn:    0.0037    constr:    0.0000
     atom:   17    charge:    0.8685    magn:    0.0133    constr:    0.0000
     atom:   18    charge:    0.8570    magn:    0.0155    constr:    0.0000
     atom:   19    charge:    0.8642    magn:    0.0032    constr:    0.0000
     atom:   20    charge:    0.8575    magn:    0.0004    constr:    0.0000
     atom:   21    charge:    0.8570    magn:    0.0006    constr:    0.0000
     atom:   22    charge:    0.8524    magn:    0.0001    constr:    0.0000
     atom:   23    charge:    0.8493    magn:    0.0004    constr:    0.0000
     atom:   24    charge:    0.8452    magn:    0.0117    constr:    0.0000
     atom:   25    charge:    1.5936    magn:    0.1960    constr:    0.0000
     atom:   26    charge:    0.8570    magn:    0.0155    constr:    0.0000
     atom:   27    charge:    0.8527    magn:    0.0006    constr:    0.0000
     atom:   28    charge:    0.8545    magn:    0.0001    constr:    0.0000
     atom:   29    charge:    0.8523    magn:    0.0006    constr:    0.0000
     atom:   30    charge:    0.8527    magn:    0.0011    constr:    0.0000
     atom:   31    charge:    0.8514    magn:    0.0054    constr:    0.0000
     atom:   32    charge:    0.8452    magn:    0.0117    constr:    0.0000
     atom:   33    charge:    0.8685    magn:    0.0133    constr:    0.0000
     atom:   34    charge:    0.8481    magn:    0.0073    constr:    0.0000
     atom:   35    charge:    0.8523    magn:    0.0012    constr:    0.0000
     atom:   36    charge:    0.8518    magn:    0.0003    constr:    0.0000
     atom:   37    charge:    0.8512    magn:    0.0003    constr:    0.0000
     atom:   38    charge:    0.8527    magn:    0.0011    constr:    0.0000
     atom:   39    charge:    0.8493    magn:    0.0004    constr:    0.0000
     atom:   40    charge:    0.8609    magn:    0.0037    constr:    0.0000
     atom:   41    charge:    0.8570    magn:    0.0003    constr:    0.0000
     atom:   42    charge:    0.8513    magn:    0.0014    constr:    0.0000
     atom:   43    charge:    0.8515    magn:    0.0006    constr:    0.0000
     atom:   44    charge:    0.8518    magn:    0.0003    constr:    0.0000
     atom:   45    charge:    0.8523    magn:    0.0006    constr:    0.0000
     atom:   46    charge:    0.8524    magn:    0.0001    constr:    0.0000
     atom:   47    charge:    0.8560    magn:    0.0007    constr:    0.0000
     atom:   48    charge:    0.8557    magn:    0.0006    constr:    0.0000
     atom:   49    charge:    0.8566    magn:   -0.0000    constr:    0.0000
     atom:   50    charge:    2.6635    magn:    0.0005    constr:    0.0000
     atom:   51    charge:    2.6637    magn:   -0.0005    constr:    0.0000
     atom:   52    charge:    2.6517    magn:    0.0057    constr:    0.0000
     atom:   53    charge:    2.6626    magn:    0.0008    constr:    0.0000
     atom:   54    charge:    2.6639    magn:    0.0004    constr:    0.0000
     atom:   55    charge:    2.6546    magn:    0.0006    constr:    0.0000
     atom:   56    charge:    2.6583    magn:    0.0002    constr:    0.0000
     atom:   57    charge:    2.6599    magn:    0.0019    constr:    0.0000
     atom:   58    charge:    2.6600    magn:    0.0080    constr:    0.0000
     atom:   59    charge:    2.6532    magn:    0.0204    constr:    0.0000
     atom:   60    charge:    2.6532    magn:    0.0097    constr:    0.0000
     atom:   61    charge:    2.6594    magn:    0.0119    constr:    0.0000
     atom:   62    charge:    2.6548    magn:    0.0053    constr:    0.0000
     atom:   63    charge:    2.6546    magn:    0.0006    constr:    0.0000
     atom:   64    charge:    2.6629    magn:    0.0002    constr:    0.0000
     atom:   65    charge:    2.6630    magn:    0.0033    constr:    0.0000
     atom:   66    charge:    2.6617    magn:    0.0206    constr:    0.0000
     atom:   67    charge:    1.7641    magn:    0.1870    constr:    0.0000
     atom:   68    charge:    2.6512    magn:    0.0691    constr:    0.0000
     atom:   69    charge:    2.6594    magn:    0.0119    constr:    0.0000
     atom:   70    charge:    2.6639    magn:    0.0004    constr:    0.0000
     atom:   71    charge:    2.6631    magn:    0.0002    constr:    0.0000
     atom:   72    charge:    2.6579    magn:    0.0000    constr:    0.0000
     atom:   73    charge:    2.6529    magn:    0.0087    constr:    0.0000
     atom:   74    charge:    2.6257    magn:    0.0855    constr:    0.0000
     atom:   75    charge:    1.7641    magn:    0.1870    constr:    0.0000
     atom:   76    charge:    2.6532    magn:    0.0097    constr:    0.0000
     atom:   77    charge:    2.6626    magn:    0.0008    constr:    0.0000
     atom:   78    charge:    2.6605    magn:    0.0002    constr:    0.0000
     atom:   79    charge:    2.6578    magn:    0.0000    constr:    0.0000
     atom:   80    charge:    2.6498    magn:    0.0034    constr:    0.0000
     atom:   81    charge:    2.6530    magn:    0.0087    constr:    0.0000
     atom:   82    charge:    2.6617    magn:    0.0206    constr:    0.0000
     atom:   83    charge:    2.6532    magn:    0.0204    constr:    0.0000
     atom:   84    charge:    2.6517    magn:    0.0057    constr:    0.0000
     atom:   85    charge:    2.6596    magn:    0.0003    constr:    0.0000
     atom:   86    charge:    2.6586    magn:    0.0000    constr:    0.0000
     atom:   87    charge:    2.6578    magn:    0.0000    constr:    0.0000
     atom:   88    charge:    2.6579    magn:    0.0000    constr:    0.0000
     atom:   89    charge:    2.6630    magn:    0.0033    constr:    0.0000
     atom:   90    charge:    2.6600    magn:    0.0080    constr:    0.0000
     atom:   91    charge:    2.6637    magn:   -0.0005    constr:    0.0000
     atom:   92    charge:    2.6644    magn:   -0.0001    constr:    0.0000
     atom:   93    charge:    2.6596    magn:    0.0003    constr:    0.0000
     atom:   94    charge:    2.6605    magn:    0.0002    constr:    0.0000
     atom:   95    charge:    2.6631    magn:    0.0002    constr:    0.0000
     atom:   96    charge:    2.6629    magn:    0.0002    constr:    0.0000
     atom:   97    charge:    2.6599    magn:    0.0019    constr:    0.0000
     atom:   98    charge:    2.6635    magn:    0.0005    constr:    0.0000

     total cpu time spent up to now is      816.6 secs

     End of self-consistent calculation

 ------ SPIN UP ------------


          k = 0.0000 0.0000 0.0000 ( 77471 PWs)   bands (ev):

   -21.8578 -21.6364 -21.3802 -21.3731 -21.3556 -21.2945 -21.2784 -20.8802
   -20.6472 -20.6358 -20.6138 -20.5381 -20.5335 -20.4148 -20.2818 -20.2799
   -20.2645 -20.1249 -20.1116 -19.5894 -19.4044 -19.3903 -19.3812 -19.3780
   -19.3685 -19.3600 -19.3578 -19.3172 -19.3083 -19.1634 -19.1493 -19.0267
   -18.9616 -18.9581 -18.9360 -18.7662 -18.7596 -18.5391 -18.5325 -18.5126
   -18.5126 -18.4572 -18.4180 -18.3841 -18.3538 -18.3315 -18.3284 -16.9507
   -15.1107 -13.2236 -12.7676 -12.7652 -12.7359 -12.7071 -12.7005 -12.6425
   -12.5513 -12.5201 -12.5134 -12.4890 -12.4097 -12.1466 -12.0565 -12.0504
   -12.0150 -11.9841 -11.9429 -11.5661 -11.4199 -11.4096 -11.3817 -11.3805
   -11.3545 -11.3540 -11.3493 -11.3128 -11.2988 -11.1015 -11.0607 -10.8682
   -10.7105 -10.6958 -10.6685 -10.6558 -10.5123 -10.0691 -10.0281 -10.0034
    -9.9341  -9.8802  -9.8208  -9.3942  -9.3548  -9.3145  -9.3104  -9.2783
    -9.2662  -9.2145  -9.0560  -8.9963  -8.9491  -8.9093  -8.8972  -8.8885
    -8.8864  -8.8792  -8.8712  -8.8477  -8.8182  -8.8172  -8.8135  -8.8119
    -8.7964  -8.7908  -8.7905  -8.7564  -8.7520  -8.7292  -8.6635  -8.6428
    -8.4704  -8.4677  -8.2036  -8.1796  -8.1763  -8.1098  -8.0824  -8.0118
    -7.8786  -7.8234  -7.8232  -7.7959  -7.7515  -7.7300  -7.5622  -7.5063
    -7.4904  -7.4682  -7.4585  -7.4367  -7.4232  -7.3886  -7.3872  -7.3400
    -7.3376  -7.3352  -7.3268  -7.2800  -7.2736  -7.2289  -7.2234  -7.0406
    -7.0198  -6.9872  -6.9166  -6.8241  -6.6621  -6.5664  -6.3161  -6.1878
    -6.1771  -6.1445  -6.0823  -6.0776  -6.0704  -6.0583  -6.0542  -6.0491
    -6.0373  -6.0308  -6.0220  -5.9967  -5.9386  -5.8338  -5.8233  -5.7334
    -5.5431  -5.4453  -5.4394  -5.4359  -5.3893  -5.2933  -5.1831  -5.1440
    -4.8019  -4.7905  -4.7708  -4.7533  -4.7181  -4.6708  -4.5691  -4.5149
    -4.5104  -4.4898  -4.4883  -3.8060  -0.2864   0.1798   0.6634   0.6706
     0.7087   0.7223   0.7245   0.7325   0.7934   0.7937   0.8094   0.8156
     0.8200   0.8337   0.8387   0.8501   0.8700   0.8877   0.9104   0.9153
     0.9370   1.1106   1.1933   1.2142   1.2299   1.2476   1.2891   1.3221
     1.3281   1.3317   1.3421   1.3530   1.3805   1.4380   1.4403   1.4435
     1.4507   1.4581   1.4750   1.8837   2.0377   2.0966   2.1010   2.1123
     2.1129   2.1252   2.1312   2.2080   2.2639

 ------ SPIN DOWN ----------


          k = 0.0000 0.0000 0.0000 ( 77471 PWs)   bands (ev):

   -21.7549 -21.5423 -21.3750 -21.3660 -21.3498 -21.2766 -21.2256 -20.8210
   -20.6374 -20.6175 -20.6011 -20.5276 -20.5132 -20.3991 -20.2677 -20.2638
   -20.2403 -20.0895 -20.0754 -19.5442 -19.3949 -19.3795 -19.3749 -19.3694
   -19.3588 -19.3524 -19.3384 -19.2910 -19.2864 -19.1388 -19.1358 -19.0114
   -18.9495 -18.9495 -18.9098 -18.7454 -18.7307 -18.5255 -18.5199 -18.4990
   -18.4910 -18.4474 -18.3958 -18.3762 -18.3440 -18.3221 -18.3083 -16.4032
   -14.5988 -13.0457 -12.7565 -12.7492 -12.7284 -12.7000 -12.6941 -12.6275
   -12.5404 -12.5073 -12.4997 -12.4493 -12.3851 -12.1248 -12.0441 -12.0360
   -12.0036 -11.9595 -11.9150 -11.5214 -11.3951 -11.3851 -11.3735 -11.3637
   -11.3495 -11.3419 -11.3406 -11.2897 -11.2671 -11.0316 -11.0070 -10.8433
   -10.7016 -10.6906 -10.6537 -10.6215 -10.4781 -10.0450 -10.0052  -9.9847
    -9.9033  -9.8417  -9.7863  -9.3752  -9.2961  -9.2821  -9.2790  -9.2673
    -9.2592  -9.2051  -9.0299  -8.9250  -8.8922  -8.8918  -8.8824  -8.8727
    -8.8647  -8.8629  -8.8352  -8.8285  -8.8059  -8.8055  -8.8049  -8.7884
    -8.7825  -8.7800  -8.7782  -8.7039  -8.6981  -8.6252  -8.6011  -8.5396
    -8.4443  -8.4088  -8.1999  -8.1733  -8.1731  -8.0594  -8.0539  -7.8488
    -7.8242  -7.8001  -7.7758  -7.7646  -7.6845  -7.6409  -7.5357  -7.4919
    -7.4786  -7.4528  -7.4325  -7.4202  -7.3815  -7.3794  -7.3707  -7.3273
    -7.3029  -7.2965  -7.2728  -7.2634  -7.1998  -7.1362  -7.0696  -7.0146
    -7.0104  -6.9808  -6.8353  -6.7624  -6.6215  -6.5199  -6.1748  -6.1640
    -6.1398  -6.1296  -6.0563  -6.0431  -6.0354  -6.0296  -6.0294  -6.0232
    -6.0122  -5.9925  -5.9477  -5.9407  -5.7943  -5.7505  -5.7436  -5.6870
    -5.4780  -5.4203  -5.4074  -5.3851  -5.1885  -5.1767  -5.0760  -5.0024
    -4.7552  -4.7437  -4.7247  -4.7190  -4.6388  -4.6069  -4.5306  -4.4854
    -4.4692  -4.4621  -3.8198  -2.6909   0.1892   0.5394   0.7132   0.7256
     0.7368   0.7549   0.7700   0.7740   0.7928   0.8110   0.8156   0.8215
     0.8320   0.8385   0.8607   0.8743   0.9070   0.9406   0.9422   0.9702
     1.0461   1.1947   1.2539   1.2832   1.2890   1.3218   1.3263   1.3311
     1.3422   1.3460   1.3491   1.3866   1.4106   1.4356   1.4375   1.4410
     1.4486   1.4564   1.4851   1.8890   2.1024   2.1058   2.1149   2.1227
     2.1452   2.1588   2.2143   2.2260   2.3166

     highest occupied, lowest unoccupied level (ev):    -0.2864   -3.8198

!    total energy              =   -1940.19875641 Ry
     Harris-Foulkes estimate   =   -1940.19875759 Ry
     estimated scf accuracy    <       0.00000015 Ry

     total all-electron energy =     -7770.023233 Ry

     The total energy is the sum of the following terms:

     one-electron contribution =  -10643.93467034 Ry
     hartree contribution      =    5407.74491726 Ry
     xc contribution           =    -430.73012856 Ry
     ewald contribution        =    4370.16646841 Ry
     DFT-D3 Dispersion         =      -0.27012578 Ry
     one-center paw contrib.   =    -643.17521740 Ry

     total magnetization       =     3.00 Bohr mag/cell
     absolute magnetization    =     3.17 Bohr mag/cell

     convergence has been achieved in   4 iterations

     negative rho (up, down):  4.825E-01 1.317E-02

     Forces acting on atoms (cartesian axes, Ry/au):

     atom    1 type  1   force =     0.00048346    0.00012984    0.00000000
     atom    2 type  1   force =     0.00035497    0.00007806    0.00000000
     atom    3 type  1   force =     0.00019255    0.00011831    0.00000000
     atom    4 type  1   force =     0.00032356    0.00023107    0.00000000
     atom    5 type  1   force =     0.00015484    0.00015416    0.00000000
     atom    6 type  1   force =     0.00013246   -0.00005781    0.00000000
     atom    7 type  1   force =     0.00037507   -0.00024535    0.00000000
     atom    8 type  1   force =     0.00029464    0.00006905    0.00000000
     atom    9 type  1   force =     0.00017276   -0.00002729    0.00000000
     atom   10 type  1   force =    -0.00009915   -0.00019554    0.00000000
     atom   11 type  1   force =     0.00004906   -0.00014383    0.00000000
     atom   12 type  1   force =     0.00027364    0.00006451    0.00000000
     atom   13 type  1   force =     0.00013632   -0.00009199    0.00000000
     atom   14 type  1   force =     0.00010289   -0.00010754    0.00000000
     atom   15 type  1   force =    -0.00030395   -0.00003219    0.00000000
     atom   16 type  1   force =    -0.00014559   -0.00000827    0.00000000
     atom   17 type  1   force =    -0.00020022   -0.00028728    0.00000000
     atom   18 type  1   force =    -0.00014285   -0.00007708    0.00000000
     atom   19 type  1   force =     0.00012516   -0.00007266    0.00000000
     atom   20 type  1   force =     0.00008809   -0.00028630    0.00000000
     atom   21 type  1   force =    -0.00005486   -0.00021876    0.00000000
     atom   22 type  1   force =    -0.00029986   -0.00010546    0.00000000
     atom   23 type  1   force =    -0.00048542    0.00000408    0.00000000
     atom   24 type  1   force =    -0.00028015    0.00017255    0.00000000
     atom   25 type  4   force =    -0.00026258    0.00003538    0.00000000
     atom   26 type  1   force =    -0.00003515    0.00016755    0.00000000
     atom   27 type  1   force =     0.00015250    0.00001299    0.00000000
     atom   28 type  1   force =    -0.00002680   -0.00040073    0.00000000
     atom   29 type  1   force =    -0.00007313   -0.00008922    0.00000000
     atom   30 type  1   force =    -0.00054503    0.00017798    0.00000000
     atom   31 type  1   force =    -0.00043477    0.00027390    0.00000000
     atom   32 type  1   force =    -0.00028407    0.00016890    0.00000000
     atom   33 type  1   force =     0.00016579    0.00033937    0.00000000
     atom   34 type  1   force =     0.00013856    0.00021447    0.00000000
     atom   35 type  1   force =     0.00003898   -0.00023239    0.00000000
     atom   36 type  1   force =    -0.00015086   -0.00015778    0.00000000
[...]
     atom:   57    charge:    2.6597    magn:    0.0019    constr:    0.0000
     atom:   58    charge:    2.6599    magn:    0.0080    constr:    0.0000
     atom:   59    charge:    2.6534    magn:    0.0203    constr:    0.0000
     atom:   60    charge:    2.6530    magn:    0.0098    constr:    0.0000
     atom:   61    charge:    2.6595    magn:    0.0119    constr:    0.0000
     atom:   62    charge:    2.6553    magn:    0.0053    constr:    0.0000
     atom:   63    charge:    2.6546    magn:    0.0006    constr:    0.0000
     atom:   64    charge:    2.6627    magn:    0.0002    constr:    0.0000
     atom:   65    charge:    2.6629    magn:    0.0032    constr:    0.0000
     atom:   66    charge:    2.6616    magn:    0.0206    constr:    0.0000
     atom:   67    charge:    1.7637    magn:    0.1871    constr:    0.0000
     atom:   68    charge:    2.6511    magn:    0.0690    constr:    0.0000
     atom:   69    charge:    2.6595    magn:    0.0119    constr:    0.0000
     atom:   70    charge:    2.6639    magn:    0.0004    constr:    0.0000
     atom:   71    charge:    2.6630    magn:    0.0002    constr:    0.0000
     atom:   72    charge:    2.6579    magn:    0.0000    constr:    0.0000
     atom:   73    charge:    2.6527    magn:    0.0088    constr:    0.0000
     atom:   74    charge:    2.6253    magn:    0.0856    constr:    0.0000
     atom:   75    charge:    1.7637    magn:    0.1871    constr:    0.0000
     atom:   76    charge:    2.6530    magn:    0.0098    constr:    0.0000
     atom:   77    charge:    2.6627    magn:    0.0008    constr:    0.0000
     atom:   78    charge:    2.6606    magn:    0.0002    constr:    0.0000
     atom:   79    charge:    2.6572    magn:    0.0000    constr:    0.0000
     atom:   80    charge:    2.6498    magn:    0.0034    constr:    0.0000
     atom:   81    charge:    2.6527    magn:    0.0088    constr:    0.0000
     atom:   82    charge:    2.6616    magn:    0.0206    constr:    0.0000
     atom:   83    charge:    2.6534    magn:    0.0203    constr:    0.0000
     atom:   84    charge:    2.6520    magn:    0.0056    constr:    0.0000
     atom:   85    charge:    2.6596    magn:    0.0003    constr:    0.0000
     atom:   86    charge:    2.6587    magn:    0.0000    constr:    0.0000
     atom:   87    charge:    2.6572    magn:    0.0000    constr:    0.0000
     atom:   88    charge:    2.6579    magn:    0.0000    constr:    0.0000
     atom:   89    charge:    2.6629    magn:    0.0032    constr:    0.0000
     atom:   90    charge:    2.6600    magn:    0.0080    constr:    0.0000
     atom:   91    charge:    2.6637    magn:   -0.0005    constr:    0.0000
     atom:   92    charge:    2.6644    magn:   -0.0001    constr:    0.0000
     atom:   93    charge:    2.6596    magn:    0.0003    constr:    0.0000
     atom:   94    charge:    2.6606    magn:    0.0002    constr:    0.0000
     atom:   95    charge:    2.6630    magn:    0.0002    constr:    0.0000
     atom:   96    charge:    2.6627    magn:    0.0002    constr:    0.0000
     atom:   97    charge:    2.6597    magn:    0.0019    constr:    0.0000
     atom:   98    charge:    2.6633    magn:    0.0005    constr:    0.0000

     total cpu time spent up to now is     3376.5 secs

     End of self-consistent calculation

 ------ SPIN UP ------------


          k = 0.0000 0.0000 0.0000 ( 77483 PWs)   bands (ev):

   -21.8542 -21.6351 -21.3798 -21.3722 -21.3557 -21.2947 -21.2776 -20.8791
   -20.6472 -20.6351 -20.6138 -20.5377 -20.5328 -20.4143 -20.2815 -20.2797
   -20.2641 -20.1242 -20.1111 -19.5885 -19.4041 -19.3897 -19.3812 -19.3778
   -19.3681 -19.3594 -19.3580 -19.3170 -19.3081 -19.1630 -19.1492 -19.0264
   -18.9609 -18.9578 -18.9361 -18.7653 -18.7604 -18.5390 -18.5324 -18.5128
   -18.5124 -18.4570 -18.4188 -18.3831 -18.3534 -18.3320 -18.3291 -16.9455
   -15.1097 -13.2211 -12.7671 -12.7646 -12.7356 -12.7065 -12.6996 -12.6425
   -12.5507 -12.5202 -12.5135 -12.4890 -12.4097 -12.1471 -12.0553 -12.0505
   -12.0142 -11.9836 -11.9424 -11.5647 -11.4196 -11.4084 -11.3814 -11.3806
   -11.3547 -11.3546 -11.3497 -11.3124 -11.2985 -11.1012 -11.0602 -10.8685
   -10.7106 -10.6960 -10.6675 -10.6550 -10.5121 -10.0687 -10.0283 -10.0035
    -9.9335  -9.8801  -9.8206  -9.3928  -9.3535  -9.3147  -9.3105  -9.2777
    -9.2662  -9.2151  -9.0557  -8.9944  -8.9495  -8.9092  -8.8982  -8.8895
    -8.8863  -8.8796  -8.8707  -8.8475  -8.8179  -8.8167  -8.8124  -8.8122
    -8.7965  -8.7908  -8.7903  -8.7565  -8.7515  -8.7282  -8.6635  -8.6420
    -8.4706  -8.4675  -8.2034  -8.1797  -8.1769  -8.1097  -8.0830  -8.0107
    -7.8787  -7.8233  -7.8229  -7.7960  -7.7506  -7.7296  -7.5613  -7.5073
    -7.4900  -7.4678  -7.4585  -7.4372  -7.4215  -7.3891  -7.3861  -7.3398
    -7.3374  -7.3352  -7.3265  -7.2807  -7.2732  -7.2309  -7.2231  -7.0413
    -7.0199  -6.9877  -6.9158  -6.8241  -6.6625  -6.5665  -6.3153  -6.1874
    -6.1777  -6.1439  -6.0821  -6.0784  -6.0699  -6.0577  -6.0542  -6.0490
    -6.0370  -6.0314  -6.0220  -5.9969  -5.9380  -5.8339  -5.8231  -5.7333
    -5.5429  -5.4450  -5.4397  -5.4355  -5.3897  -5.2931  -5.1805  -5.1459
    -4.8020  -4.7907  -4.7708  -4.7535  -4.7177  -4.6706  -4.5684  -4.5143
    -4.5103  -4.4905  -4.4888  -3.8071  -0.2884   0.1785   0.6628   0.6705
     0.7070   0.7220   0.7245   0.7322   0.7922   0.7939   0.8078   0.8141
     0.8191   0.8319   0.8389   0.8487   0.8702   0.8865   0.9097   0.9146
     0.9365   1.1101   1.1925   1.2136   1.2297   1.2476   1.2889   1.3205
     1.3261   1.3306   1.3401   1.3512   1.3788   1.4358   1.4383   1.4421
     1.4487   1.4563   1.4732   1.8824   2.0374   2.0950   2.1008   2.1112
     2.1129   2.1306   2.3020   2.3204   2.3459

 ------ SPIN DOWN ----------


          k = 0.0000 0.0000 0.0000 ( 77483 PWs)   bands (ev):

   -21.7531 -21.5399 -21.3746 -21.3651 -21.3501 -21.2768 -21.2244 -20.8197
   -20.6374 -20.6168 -20.6011 -20.5272 -20.5125 -20.3985 -20.2674 -20.2637
   -20.2401 -20.0890 -20.0745 -19.5433 -19.3946 -19.3791 -19.3748 -19.3690
   -19.3589 -19.3517 -19.3382 -19.2907 -19.2862 -19.1384 -19.1357 -19.0110
   -18.9492 -18.9487 -18.9100 -18.7446 -18.7314 -18.5255 -18.5196 -18.4993
   -18.4908 -18.4470 -18.3968 -18.3752 -18.3437 -18.3225 -18.3089 -16.3974
   -14.5972 -13.0432 -12.7559 -12.7488 -12.7281 -12.6994 -12.6933 -12.6275
   -12.5399 -12.5073 -12.4997 -12.4494 -12.3851 -12.1252 -12.0430 -12.0361
   -12.0029 -11.9590 -11.9146 -11.5201 -11.3948 -11.3841 -11.3735 -11.3632
   -11.3502 -11.3420 -11.3411 -11.2894 -11.2667 -11.0314 -11.0065 -10.8434
   -10.7018 -10.6908 -10.6526 -10.6207 -10.4780 -10.0448 -10.0054  -9.9848
    -9.9027  -9.8415  -9.7860  -9.3739  -9.2962  -9.2823  -9.2784  -9.2667
    -9.2592  -9.2057  -9.0293  -8.9254  -8.8928  -8.8923  -8.8834  -8.8729
    -8.8648  -8.8623  -8.8347  -8.8269  -8.8053  -8.8053  -8.8052  -8.7878
    -8.7823  -8.7800  -8.7789  -8.7042  -8.6971  -8.6252  -8.6000  -8.5384
    -8.4445  -8.4088  -8.1998  -8.1738  -8.1737  -8.0602  -8.0533  -7.8490
    -7.8235  -7.8003  -7.7751  -7.7647  -7.6842  -7.6402  -7.5347  -7.4927
    -7.4784  -7.4527  -7.4330  -7.4185  -7.3806  -7.3798  -7.3701  -7.3273
    -7.3027  -7.2964  -7.2727  -7.2641  -7.2019  -7.1358  -7.0687  -7.0146
    -7.0111  -6.9814  -6.8342  -6.7624  -6.6219  -6.5202  -6.1744  -6.1643
    -6.1394  -6.1286  -6.0561  -6.0430  -6.0355  -6.0305  -6.0291  -6.0233
    -6.0119  -5.9926  -5.9478  -5.9408  -5.7946  -5.7500  -5.7435  -5.6867
    -5.4776  -5.4201  -5.4071  -5.3854  -5.1893  -5.1763  -5.0728  -5.0046
    -4.7555  -4.7437  -4.7248  -4.7194  -4.6385  -4.6075  -4.5299  -4.4851
    -4.4699  -4.4628  -3.8173  -2.6914   0.1882   0.5393   0.7120   0.7249
     0.7365   0.7541   0.7696   0.7743   0.7918   0.8096   0.8142   0.8207
     0.8315   0.8371   0.8596   0.8743   0.9069   0.9399   0.9417   0.9698
     1.0453   1.1943   1.2538   1.2830   1.2885   1.3204   1.3245   1.3301
     1.3409   1.3450   1.3479   1.3859   1.4099   1.4337   1.4358   1.4401
     1.4471   1.4552   1.4840   1.8877   2.1015   2.1046   2.1139   2.1219
     2.1465   2.3143   2.3327   2.3486   2.4428

     highest occupied, lowest unoccupied level (ev):    -0.2884   -3.8173

!    total energy              =   -1940.19890880 Ry
     Harris-Foulkes estimate   =   -1940.19890881 Ry
     estimated scf accuracy    <          6.5E-09 Ry

     total all-electron energy =     -7770.023386 Ry

     The total energy is the sum of the following terms:

     one-electron contribution =  -10643.03080336 Ry
     hartree contribution      =    5407.28741615 Ry
     xc contribution           =    -430.72144413 Ry
     ewald contribution        =    4369.71099488 Ry
     DFT-D3 Dispersion         =      -0.27010924 Ry
     one-center paw contrib.   =    -643.17496311 Ry

     total magnetization       =     3.00 Bohr mag/cell
     absolute magnetization    =     3.17 Bohr mag/cell

     convergence has been achieved in  16 iterations

     negative rho (up, down):  4.834E-01 1.322E-02

     Forces acting on atoms (cartesian axes, Ry/au):

     atom    1 type  1   force =     0.00005192    0.00007835    0.00000000
     atom    2 type  1   force =    -0.00003744    0.00011016    0.00000000
     atom    3 type  1   force =     0.00002628   -0.00000710    0.00000000
     atom    4 type  1   force =    -0.00004675   -0.00006926    0.00000000
     atom    5 type  1   force =    -0.00001750   -0.00007316    0.00000000
     atom    6 type  1   force =     0.00007965   -0.00001481    0.00000000
     atom    7 type  1   force =     0.00004328    0.00001456    0.00000000
     atom    8 type  1   force =     0.00002667    0.00001558    0.00000000
     atom    9 type  1   force =     0.00005156    0.00009436    0.00000000
     atom   10 type  1   force =     0.00009549    0.00005597    0.00000000
     atom   11 type  1   force =     0.00007458   -0.00004426    0.00000000
     atom   12 type  1   force =     0.00005084   -0.00003374    0.00000000
     atom   13 type  1   force =     0.00002887   -0.00000545    0.00000000
     atom   14 type  1   force =     0.00006171   -0.00003649    0.00000000
     atom   15 type  1   force =    -0.00002189    0.00011425    0.00000000
     atom   16 type  1   force =    -0.00004228    0.00003972    0.00000000
     atom   17 type  1   force =     0.00005049    0.00005275    0.00000000
     atom   18 type  1   force =     0.00009631   -0.00000628    0.00000000
     atom   19 type  1   force =     0.00000915   -0.00000753    0.00000000
     atom   20 type  1   force =     0.00005002   -0.00001587    0.00000000
     atom   21 type  1   force =     0.00005169    0.00005749    0.00000000
     atom   22 type  1   force =     0.00002832    0.00011475    0.00000000
     atom   23 type  1   force =    -0.00000457    0.00017675    0.00000000
     atom   24 type  1   force =    -0.00005365    0.00006415    0.00000000
     atom   25 type  4   force =     0.00005255   -0.00002261    0.00000000
     atom   26 type  1   force =     0.00005444   -0.00008924    0.00000000
     atom   27 type  1   force =     0.00006941   -0.00004501    0.00000000
     atom   28 type  1   force =     0.00001480    0.00007897    0.00000000
     atom   29 type  1   force =     0.00002044    0.00012559    0.00000000
     atom   30 type  1   force =     0.00004382    0.00008350    0.00000000
     atom   31 type  1   force =    -0.00006049    0.00003173    0.00000000
     atom   32 type  1   force =    -0.00008386    0.00001080    0.00000000
     atom   33 type  1   force =    -0.00002850   -0.00008397    0.00000000
     atom   34 type  1   force =    -0.00000864   -0.00012785    0.00000000
     atom   35 type  1   force =     0.00000042   -0.00001644    0.00000000
     atom   36 type  1   force =    -0.00012111    0.00008170    0.00000000
     atom   37 type  1   force =    -0.00004905    0.00003178    0.00000000
     atom   38 type  1   force =    -0.00004707   -0.00008371    0.00000000
     atom   39 type  1   force =    -0.00015440   -0.00009450    0.00000000
     atom   40 type  1   force =    -0.00006085   -0.00000761    0.00000000
     atom   41 type  1   force =    -0.00006814   -0.00011368    0.00000000
     atom   42 type  1   force =    -0.00012530   -0.00000466    0.00000000
     atom   43 type  1   force =    -0.00008976    0.00007929    0.00000000
     atom   44 type  1   force =    -0.00010876    0.00007097    0.00000000
     atom   45 type  1   force =    -0.00008294   -0.00009381    0.00000000
     atom   46 type  1   force =    -0.00008292   -0.00009558    0.00000000
     atom   47 type  1   force =    -0.00010877   -0.00005015    0.00000000
     atom   48 type  1   force =     0.00000907   -0.00002787    0.00000000
     atom   49 type  1   force =    -0.00002155   -0.00003289    0.00000000
     atom   50 type  2   force =     0.00004684   -0.00007097    0.00000000
     atom   51 type  2   force =     0.00006209   -0.00006778    0.00000000
     atom   52 type  2   force =     0.00005702    0.00001513    0.00000000
     atom   53 type  2   force =    -0.00000250   -0.00000005    0.00000000
     atom   54 type  2   force =    -0.00003315   -0.00007059    0.00000000
     atom   55 type  2   force =    -0.00003562   -0.00003158    0.00000000
     atom   56 type  2   force =    -0.00001682   -0.00001065    0.00000000
     atom   57 type  2   force =    -0.00000149   -0.00005079    0.00000000
     atom   58 type  2   force =     0.00002055   -0.00015364    0.00000000
     atom   59 type  2   force =     0.00009984   -0.00006093    0.00000000
     atom   60 type  2   force =     0.00011295    0.00006270    0.00000000
     atom   61 type  2   force =    -0.00006992   -0.00000081    0.00000000
     atom   62 type  2   force =    -0.00003747    0.00001058    0.00000000
     atom   63 type  2   force =     0.00000285    0.00003041    0.00000000
     atom   64 type  2   force =    -0.00001893    0.00006288    0.00000000
     atom   65 type  2   force =    -0.00004072   -0.00000653    0.00000000
     atom   66 type  2   force =    -0.00001257   -0.00002930    0.00000000
     atom   67 type  3   force =     0.00007050   -0.00000396    0.00000000
     atom   68 type  2   force =    -0.00000359    0.00000147    0.00000000
     atom   69 type  2   force =    -0.00002784    0.00005320    0.00000000
     atom   70 type  2   force =     0.00005197    0.00005931    0.00000000
     atom   71 type  2   force =     0.00006848    0.00003595    0.00000000
     atom   72 type  2   force =    -0.00003144    0.00003956    0.00000000
     atom   73 type  2   force =    -0.00011720    0.00006181    0.00000000
     atom   74 type  2   force =    -0.00005476    0.00002906    0.00000000
     atom   75 type  5   force =     0.00004704   -0.00005638    0.00000000
     atom   76 type  2   force =     0.00002076   -0.00012075    0.00000000
     atom   77 type  2   force =     0.00002169    0.00000516    0.00000000
     atom   78 type  2   force =     0.00000314   -0.00004590    0.00000000
     atom   79 type  2   force =     0.00002304    0.00002839    0.00000000
     atom   80 type  2   force =    -0.00004955    0.00002527    0.00000000
     atom   81 type  2   force =    -0.00011599    0.00006843    0.00000000
     atom   82 type  2   force =     0.00001856    0.00004064    0.00000000
     atom   83 type  2   force =     0.00011199   -0.00003304    0.00000000
     atom   84 type  2   force =     0.00003604   -0.00005569    0.00000000
     atom   85 type  2   force =    -0.00004226   -0.00003496    0.00000000
     atom   86 type  2   force =    -0.00002307   -0.00000146    0.00000000
     atom   87 type  2   force =    -0.00001965   -0.00003491    0.00000000
     atom   88 type  2   force =    -0.00004624    0.00001386    0.00000000
     atom   89 type  2   force =    -0.00001322    0.00005805    0.00000000
     atom   90 type  2   force =     0.00013567    0.00008157    0.00000000
     atom   91 type  2   force =     0.00008243   -0.00003448    0.00000000
     atom   92 type  2   force =     0.00006452   -0.00007720    0.00000000
     atom   93 type  2   force =    -0.00001724    0.00002953    0.00000000
     atom   94 type  2   force =     0.00002551    0.00002908    0.00000000
     atom   95 type  2   force =     0.00000259   -0.00006003    0.00000000
     atom   96 type  2   force =    -0.00005905   -0.00000427    0.00000000
     atom   97 type  2   force =     0.00003233    0.00003058    0.00000000
     atom   98 type  2   force =     0.00005627   -0.00003565    0.00000000

     Total force =     0.000855     Total SCF correction =     0.000144
     SCF correction compared to forces is large: reduce conv_thr to get better values


     Computing stress (Cartesian axis) and pressure


     negative rho (up, down):  4.834E-01 1.322E-02
          total   stress  (Ry/bohr**3)                   (kbar)     P=   -0.18
  -0.00000019   0.00000001   0.00000000         -0.03      0.00      0.00
   0.00000001  -0.00000018   0.00000000          0.00     -0.03      0.00
   0.00000000   0.00000000  -0.00000334          0.00      0.00     -0.49


     Writing output data file C2Cn.save/
 
     init_run     :      9.52s CPU      9.95s WALL (       2 calls)
     electrons    :   3186.38s CPU   3221.19s WALL (       8 calls)
     update_pot   :     21.61s CPU     21.75s WALL (       6 calls)
     forces       :     30.66s CPU     31.72s WALL (       8 calls)
     stress       :     96.46s CPU     97.25s WALL (       8 calls)

     Called by init_run:
     wfcinit      :      3.65s CPU      3.87s WALL (       2 calls)
     potinit      :      1.96s CPU      2.01s WALL (       2 calls)
     hinit0       :      2.94s CPU      2.99s WALL (       2 calls)

     Called by electrons:
     c_bands      :   3105.15s CPU   3134.38s WALL (      69 calls)
     sum_band     :     40.46s CPU     42.41s WALL (      69 calls)
     v_of_rho     :     13.39s CPU     13.83s WALL (      71 calls)
     newd         :      4.62s CPU      6.10s WALL (      71 calls)
     PAW_pot      :     15.44s CPU     15.67s WALL (      77 calls)
     mix_rho      :      0.99s CPU      1.16s WALL (      69 calls)

     Called by c_bands:
     init_us_2    :      2.74s CPU      2.84s WALL (     324 calls)
     rcgdiagg     :   3032.04s CPU   3059.30s WALL (     157 calls)
     wfcrot       :     74.30s CPU     76.01s WALL (     133 calls)

     Called by sum_band:
     sum_band:bec :      0.10s CPU      0.10s WALL (     150 calls)
     addusdens    :      4.90s CPU      6.36s WALL (      69 calls)

     Called by *cgdiagg:
     h_psi        :   1558.58s CPU   1572.88s WALL (  134179 calls)
     s_psi        :    887.49s CPU    895.78s WALL (  268225 calls)
     rdiaghg      :      2.32s CPU      2.42s WALL (     133 calls)

     Called by h_psi:
     h_psi:pot    :   1556.90s CPU   1571.18s WALL (  134179 calls)
     h_psi:calbec :    540.79s CPU    545.42s WALL (  134179 calls)
     vloc_psi     :    547.67s CPU    554.30s WALL (  134179 calls)
     add_vuspsi   :    466.61s CPU    470.05s WALL (  134179 calls)
     hs_1psi      :   1943.57s CPU   1960.62s WALL (  134046 calls)
     s_1psi       :    909.87s CPU    917.94s WALL (  134046 calls)

     General routines
     calbec       :   1014.89s CPU   1024.52s WALL (  268455 calls)
     fft          :     13.32s CPU     13.52s WALL (    1473 calls)
     ffts         :      0.49s CPU      0.51s WALL (     138 calls)
     fftw         :    513.39s CPU    519.54s WALL (  318368 calls)
 
     Parallel routines
     fft_scatt_xy :     49.58s CPU     50.03s WALL (  319979 calls)
     fft_scatt_yz :    151.78s CPU    154.01s WALL (  319979 calls)
 
     PWSCF        :  55m51.59s CPU  56m34.29s WALL

 
   This run was terminated on:  20: 2:19   8Jun2021            

=------------------------------------------------------------------------------=
   JOB DONE.
=------------------------------------------------------------------------------=
