
     Program PWSCF v.6.4.1 starts on  1Aug2021 at  4:33: 0 

     This program is part of the open-source Quantum ESPRESSO suite
     for quantum simulation of materials; please cite
         "P. Giannozzi et al., J. Phys.:Condens. Matter 21 395502 (2009);
         "P. Giannozzi et al., J. Phys.:Condens. Matter 29 465901 (2017);
          URL http://www.quantum-espresso.org", 
     in publications or presentations arising from this work. More details at
     http://www.quantum-espresso.org/quote

     Parallel version (MPI), running on   128 processors

     MPI processes distributed on     4 nodes
     R & G space division:  proc/nbgrp/npool/nimage =     128
     Waiting for input...
     Reading input from standard input

     Current dimensions of program PWSCF are:
     Max number of different atomic species (ntypx) = 10
     Max number of k-points (npk) =  40000
     Max angular momentum in pseudopotentials (lmaxx) =  3

     IMPORTANT: XC functional enforced from input :
     Exchange-correlation      = HSE ( 1  4 12  4 0 0)
     EXX-fraction              =        0.25
     Using LIBXC version       =    4   3   4
     Any further DFT definition will be discarded
     Please, verify this is what you really want

               file N.pbe-n-kjpaw_psl.1.0.0.UPF: wavefunction(s)  2S renormalized
               file C.pbe-n-kjpaw_psl.1.0.0.UPF: wavefunction(s)  2S 2P renormalized
               file C.pbe-n-kjpaw_psl.1.0.0.UPF: wavefunction(s)  2S 2P renormalized
               file C.pbe-n-kjpaw_psl.1.0.0.UPF: wavefunction(s)  2S 2P renormalized
     EXX fraction changed:   0.32
     EXX Screening parameter changed:    0.0455000

     --------------------------------------------
     Parameters for DFT-D3 Dispersion Correction:
     --------------------------------------------
       Reference C6 values for interpolation: 

         atom   Coordination number   C6
         B          0.000           214.36
         B          0.971           150.74
         B          1.944           106.23
         B          2.913            62.89
         B          4.586            56.06
         C1         0.000            98.23
         C1         0.987            86.49
         C1         1.998            58.72
         C1         2.999            51.56
         C1         3.984            36.41
         C2         0.000            98.23
         C2         0.987            86.49
         C2         1.998            58.72
         C2         2.999            51.56
         C2         3.984            36.41
         C3         0.000            98.23
         C3         0.987            86.49
         C3         1.998            58.72
         C3         2.999            51.56
         C3         3.984            36.41
         N          0.000            50.54
         N          0.994            44.25
         N          2.014            39.35
         N          2.990            31.16

       Values used:

         atom   Coordination number  R0_AB[au]  C6      C8
         B          3.326            3.039     62.90   2506.22
         B          3.317            3.039     62.90   2506.43
         B          3.318            3.039     62.90   2506.42
         B          3.323            3.039     62.90   2506.29
         B          3.325            3.039     62.90   2506.26
         B          3.323            3.039     62.90   2506.30
         B          3.326            3.039     62.90   2506.24
         B          3.323            3.039     62.90   2506.29
         B          3.322            3.039     62.90   2506.32
         B          3.307            3.039     62.91   2506.67
         B          3.318            3.039     62.90   2506.42
         B          3.324            3.039     62.90   2506.27
         B          3.322            3.039     62.90   2506.31
         B          3.323            3.039     62.90   2506.30
         B          3.323            3.039     62.90   2506.30
         B          3.324            3.039     62.90   2506.27
         B          3.294            3.039     62.92   2506.95
         B          3.280            3.039     62.92   2507.27
         B          3.319            3.039     62.90   2506.40
         B          3.324            3.039     62.90   2506.27
         B          3.325            3.039     62.90   2506.26
         B          3.322            3.039     62.90   2506.33
         B          3.317            3.039     62.90   2506.43
         B          3.306            3.039     62.91   2506.69
         C2         3.239            2.750     49.57   1433.52
         B          3.280            3.039     62.92   2507.27
         B          3.318            3.039     62.90   2506.42
         B          3.323            3.039     62.90   2506.29
         B          3.320            3.039     62.90   2506.38
         B          3.317            3.039     62.90   2506.45
         B          3.308            3.039     62.91   2506.65
         B          3.306            3.039     62.91   2506.69
         B          3.294            3.039     62.92   2506.95
         B          3.307            3.039     62.91   2506.67
         B          3.318            3.039     62.90   2506.42
         B          3.316            3.039     62.90   2506.46
         B          3.317            3.039     62.90   2506.45
         B          3.317            3.039     62.90   2506.45
         B          3.317            3.039     62.90   2506.43
         B          3.324            3.039     62.90   2506.27
         B          3.322            3.039     62.90   2506.32
         B          3.317            3.039     62.90   2506.43
         B          3.319            3.039     62.90   2506.39
         B          3.316            3.039     62.90   2506.46
         B          3.320            3.039     62.90   2506.38
         B          3.322            3.039     62.90   2506.33
         B          3.323            3.039     62.90   2506.30
         B          3.323            3.039     62.90   2506.29
         B          3.326            3.039     62.90   2506.22
         N          3.129            2.478     31.22    688.74
         N          3.129            2.478     31.22    688.75
         N          3.126            2.478     31.22    688.78
         N          3.128            2.478     31.22    688.76
         N          3.129            2.478     31.22    688.74
         N          3.128            2.478     31.22    688.75
         N          3.128            2.478     31.22    688.75
         N          3.128            2.478     31.22    688.75
         N          3.129            2.478     31.22    688.75
         N          3.125            2.478     31.22    688.78
         N          3.123            2.478     31.22    688.80
         N          3.129            2.478     31.22    688.74
         N          3.128            2.478     31.22    688.75
         N          3.128            2.478     31.22    688.75
         N          3.129            2.478     31.22    688.75
         N          3.129            2.478     31.22    688.75
         N          3.130            2.478     31.22    688.73
         C1         3.176            2.750     50.30   1454.80
         N          3.126            2.478     31.22    688.77
         N          3.129            2.478     31.22    688.74
         N          3.129            2.478     31.22    688.74
         N          3.128            2.478     31.22    688.75
         N          3.127            2.478     31.22    688.77
         N          3.124            2.478     31.22    688.80
         N          3.144            2.478     31.21    688.61
         C3         3.176            2.750     50.30   1454.80
         N          3.123            2.478     31.22    688.80
         N          3.128            2.478     31.22    688.76
         N          3.127            2.478     31.22    688.77
         N          3.126            2.478     31.22    688.77
         N          3.125            2.478     31.22    688.78
         N          3.124            2.478     31.22    688.80
         N          3.130            2.478     31.22    688.73
         N          3.125            2.478     31.22    688.78
         N          3.126            2.478     31.22    688.78
         N          3.127            2.478     31.22    688.77
         N          3.126            2.478     31.22    688.77
         N          3.126            2.478     31.22    688.77
         N          3.127            2.478     31.22    688.77
         N          3.129            2.478     31.22    688.75
         N          3.129            2.478     31.22    688.75
         N          3.129            2.478     31.22    688.75
         N          3.129            2.478     31.22    688.74
         N          3.127            2.478     31.22    688.77
         N          3.127            2.478     31.22    688.77
         N          3.128            2.478     31.22    688.75
         N          3.129            2.478     31.22    688.75
         N          3.128            2.478     31.22    688.75
         N          3.129            2.478     31.22    688.74

         Molecular C6 ( Ry / a.u.^6 ) =    437748.95


     gamma-point specific algorithms are used
     Message from routine setup :
     BEWARE: nonlinear core correction is not consistent with hybrid XC

     Subspace diagonalization in iterative solution of the eigenvalue problem:
     one sub-group per band group will be used
     scalapack distributed-memory algorithm (size of sub-group:  8*  8 procs)

     EXX: grid of k+q points same as grid of k-points
 
     Parallelization info
     --------------------
     sticks:   dense  smooth     PW     G-vecs:    dense   smooth      PW
     Min          60      60     13                 4976     4976     610
     Max          62      62     16                 5006     5006     636
     Sum        7857    7857   1953               638827   638827   79977
 


     bravais-lattice index     =            0
     lattice parameter (alat)  =      33.2346  a.u.
     unit-cell volume          =   36233.0935 (a.u.)^3
     number of atoms/cell      =           98
     number of atomic types    =            5
     number of electrons       =       391.00
     number of Kohn-Sham states=          245
     kinetic-energy cutoff     =      25.7300  Ry
     charge density cutoff     =     102.9200  Ry
     cutoff for Fock operator  =     102.9200  Ry
     convergence threshold     =      1.0E-02
     mixing beta               =       0.7000
     number of iterations used =            8  plain     mixing
     Exchange-correlation      = HSE ( 1  4 12  4 0 0)
     EXX-fraction              =        0.32
     Using LIBXC version       =    4   3   4

     celldm(1)=  33.234611  celldm(2)=   0.000000  celldm(3)=   0.000000
     celldm(4)=   0.000000  celldm(5)=   0.000000  celldm(6)=   0.000000

     crystal axes: (cart. coord. in units of alat)
               a(1) = (   1.001012   0.000172   0.000000 )  
               a(2) = (  -0.500357   0.866988   0.000000 )  
               a(3) = (   0.000000   0.000000   1.137204 )  

     reciprocal axes: (cart. coord. in units 2 pi/alat)
               b(1) = (  0.998890  0.576480  0.000000 )  
               b(2) = ( -0.000199  1.153304  0.000000 )  
               b(3) = (  0.000000  0.000000  0.879350 )  


     PseudoPot. # 1 for B  read from file:
     ./pseudo/B.pbe-n-kjpaw_psl.1.0.0.UPF
     MD5 check sum: 8c825a5969375aca5c2c6ad5945b3059
     Pseudo is Projector augmented-wave + core cor, Zval =  3.0
     Generated using "atomic" code by A. Dal Corso v.6.3
     Shape of augmentation charge: PSQ
     Using radial grid of 1059 points,  4 beta functions with: 
                l(1) =   0
                l(2) =   0
                l(3) =   1
                l(4) =   1
     Q(r) pseudized with 0 coefficients 


     PseudoPot. # 2 for N  read from file:
     ./pseudo/N.pbe-n-kjpaw_psl.1.0.0.UPF
     MD5 check sum: 14c48229446f9f2d411169a3abcbc3fa
     Pseudo is Projector augmented-wave + core cor, Zval =  5.0
     Generated using "atomic" code by A. Dal Corso v.6.3
     Shape of augmentation charge: PSQ
     Using radial grid of 1085 points,  4 beta functions with: 
                l(1) =   0
                l(2) =   0
                l(3) =   1
                l(4) =   1
     Q(r) pseudized with 0 coefficients 


     PseudoPot. # 3 for C  read from file:
     ./pseudo/C.pbe-n-kjpaw_psl.1.0.0.UPF
     MD5 check sum: 5f16ad9a65e90284d1d834d4ab3b0f7d
     Pseudo is Projector augmented-wave + core cor, Zval =  4.0
     Generated using "atomic" code by A. Dal Corso v.6.3
     Shape of augmentation charge: PSQ
     Using radial grid of 1073 points,  4 beta functions with: 
                l(1) =   0
                l(2) =   0
                l(3) =   1
                l(4) =   1
     Q(r) pseudized with 0 coefficients 


     PseudoPot. # 4 for C  read from file:
     ./pseudo/C.pbe-n-kjpaw_psl.1.0.0.UPF
     MD5 check sum: 5f16ad9a65e90284d1d834d4ab3b0f7d
     Pseudo is Projector augmented-wave + core cor, Zval =  4.0
     Generated using "atomic" code by A. Dal Corso v.6.3
     Shape of augmentation charge: PSQ
     Using radial grid of 1073 points,  4 beta functions with: 
                l(1) =   0
                l(2) =   0
                l(3) =   1
                l(4) =   1
     Q(r) pseudized with 0 coefficients 


     PseudoPot. # 5 for C  read from file:
     ./pseudo/C.pbe-n-kjpaw_psl.1.0.0.UPF
     MD5 check sum: 5f16ad9a65e90284d1d834d4ab3b0f7d
     Pseudo is Projector augmented-wave + core cor, Zval =  4.0
     Generated using "atomic" code by A. Dal Corso v.6.3
     Shape of augmentation charge: PSQ
     Using radial grid of 1073 points,  4 beta functions with: 
                l(1) =   0
                l(2) =   0
                l(3) =   1
                l(4) =   1
     Q(r) pseudized with 0 coefficients 


     atomic species   valence    mass     pseudopotential
        B              3.00    10.00000     B ( 1.00)
        N              5.00    14.00000     N ( 1.00)
        C1             4.00    12.00000     C ( 1.00)
        C2             4.00    12.00000     C ( 1.00)
        C3             4.00    12.00000     C ( 1.00)

     Starting magnetic structure 
     atomic species   magnetization
        B            0.000
        N            0.000
        C1           1.000
        C2           0.000
        C3           0.000

     No symmetry found



   Cartesian axes

     site n.     atom                  positions (alat units)
         1           B   tau(   1) = (  -0.0000569   0.0821035   0.5686018  )
         2           B   tau(   2) = (  -0.0715922   0.2061120   0.5686018  )
         3           B   tau(   3) = (  -0.1432601   0.3302106   0.5686018  )
         4           B   tau(   4) = (  -0.2148366   0.4540926   0.5686018  )
         5           B   tau(   5) = (  -0.2858841   0.5779690   0.5686018  )
         6           B   tau(   6) = (  -0.3571579   0.7019465   0.5686018  )
         7           B   tau(   7) = (  -0.4287428   0.8256416   0.5686018  )
         8           B   tau(   8) = (   0.1429037   0.0818269   0.5686018  )
         9           B   tau(   9) = (   0.0710542   0.2050905   0.5686018  )
        10           B   tau(  10) = (  -0.0002584   0.3300883   0.5686018  )
        11           B   tau(  11) = (  -0.0723454   0.4540184   0.5686018  )
        12           B   tau(  12) = (  -0.1437972   0.5781161   0.5686018  )
        13           B   tau(  13) = (  -0.2145740   0.7019912   0.5686018  )
        14           B   tau(  14) = (  -0.2858273   0.8254948   0.5686018  )
        15           B   tau(  15) = (   0.2863392   0.0818628   0.5686018  )
        16           B   tau(  16) = (   0.2149163   0.2047763   0.5686018  )
        17           B   tau(  17) = (   0.1430553   0.3271982   0.5686018  )
        18           B   tau(  18) = (   0.0699960   0.4551765   0.5686018  )
        19           B   tau(  19) = (  -0.0020392   0.5792842   0.5686018  )
        20           B   tau(  20) = (  -0.0719066   0.7026342   0.5686018  )
        21           B   tau(  21) = (  -0.1428227   0.8257587   0.5686018  )
        22           B   tau(  22) = (   0.4291285   0.0825778   0.5686018  )
        23           B   tau(  23) = (   0.3575981   0.2061916   0.5686018  )
        24           B   tau(  24) = (   0.2854939   0.3294343   0.5686018  )
        25           C2  tau(  25) = (   0.2163757   0.4531823   0.5686018  )
        26           B   tau(  26) = (   0.1414588   0.5789537   0.5686018  )
        27           B   tau(  27) = (   0.0712910   0.7028040   0.5686018  )
        28           B   tau(  28) = (  -0.0000188   0.8261679   0.5686018  )
        29           B   tau(  29) = (   0.5719333   0.0827336   0.5686018  )
        30           B   tau(  30) = (   0.5005330   0.2064721   0.5686018  )
        31           B   tau(  31) = (   0.4290685   0.3303840   0.5686018  )
        32           B   tau(  32) = (   0.3581037   0.4551982   0.5686018  )
        33           B   tau(  33) = (   0.2888209   0.5796716   0.5686018  )
        34           B   tau(  34) = (   0.2146612   0.7023399   0.5686018  )
        35           B   tau(  35) = (   0.1430544   0.8261219   0.5686018  )
        36           B   tau(  36) = (   0.7149451   0.0827745   0.5686018  )
        37           B   tau(  37) = (   0.6434195   0.2066284   0.5686018  )
        38           B   tau(  38) = (   0.5721116   0.3304500   0.5686018  )
        39           B   tau(  39) = (   0.5008871   0.4543755   0.5686018  )
        40           B   tau(  40) = (   0.4307719   0.5786491   0.5686018  )
        41           B   tau(  41) = (   0.3585687   0.7030802   0.5686018  )
        42           B   tau(  42) = (   0.2863609   0.8261049   0.5686018  )
        43           B   tau(  43) = (   0.8581172   0.0826727   0.5686018  )
        44           B   tau(  44) = (   0.7864429   0.2066124   0.5686018  )
        45           B   tau(  45) = (   0.7149725   0.3304847   0.5686018  )
        46           B   tau(  46) = (   0.6437050   0.4542352   0.5686018  )
        47           B   tau(  47) = (   0.5729295   0.5782519   0.5686018  )
        48           B   tau(  48) = (   0.5012429   0.7024886   0.5686018  )
        49           B   tau(  49) = (   0.4295230   0.8261578   0.5686018  )
        50           N   tau(  50) = (   0.0714377   0.0409430   0.5686018  )
        51           N   tau(  51) = (  -0.0003701   0.1643960   0.5686018  )
        52           N   tau(  52) = (  -0.0717359   0.2888098   0.5686018  )
        53           N   tau(  53) = (  -0.1435526   0.4127376   0.5686018  )
        54           N   tau(  54) = (  -0.2148525   0.5366095   0.5686018  )
        55           N   tau(  55) = (  -0.2858373   0.6605652   0.5686018  )
        56           N   tau(  56) = (  -0.3572661   0.7843746   0.5686018  )
        57           N   tau(  57) = (   0.2146211   0.0408634   0.5686018  )
        58           N   tau(  58) = (   0.1428585   0.1641061   0.5686018  )
        59           N   tau(  59) = (   0.0708944   0.2874181   0.5686018  )
        60           N   tau(  60) = (  -0.0010159   0.4128945   0.5686018  )
        61           N   tau(  61) = (  -0.0727891   0.5369109   0.5686018  )
        62           N   tau(  62) = (  -0.1432083   0.6607882   0.5686018  )
        63           N   tau(  63) = (  -0.2143297   0.7844200   0.5686018  )
        64           N   tau(  64) = (   0.3577974   0.0411125   0.5686018  )
        65           N   tau(  65) = (   0.2865931   0.1641770   0.5686018  )
        66           N   tau(  66) = (   0.2150815   0.2864806   0.5686018  )
        67           C1  tau(  67) = (   0.1450372   0.4127524   0.5686018  )
        68           N   tau(  68) = (   0.0685552   0.5385265   0.5686018  )
        69           N   tau(  69) = (  -0.0007179   0.6617421   0.5686018  )
        70           N   tau(  70) = (  -0.0714885   0.7849232   0.5686018  )
        71           N   tau(  71) = (   0.5005190   0.0415568   0.5686018  )
        72           N   tau(  72) = (   0.4291104   0.1652151   0.5686018  )
        73           N   tau(  73) = (   0.3573527   0.2891908   0.5686018  )
        74           N   tau(  74) = (   0.2853722   0.4133471   0.5686018  )
        75           C3  tau(  75) = (   0.2157197   0.5351781   0.5686018  )
        76           N   tau(  76) = (   0.1425702   0.6615928   0.5686018  )
        77           N   tau(  77) = (   0.0714377   0.7851117   0.5686018  )
        78           N   tau(  78) = (   0.6434269   0.0416068   0.5686018  )
        79           N   tau(  79) = (   0.5719524   0.1653190   0.5686018  )
        80           N   tau(  80) = (   0.5004147   0.2891923   0.5686018  )
        81           N   tau(  81) = (   0.4288850   0.4130884   0.5686018  )
        82           N   tau(  82) = (   0.3600965   0.5376539   0.5686018  )
        83           N   tau(  83) = (   0.2871910   0.6620549   0.5686018  )
        84           N   tau(  84) = (   0.2146706   0.7848805   0.5686018  )
        85           N   tau(  85) = (   0.7865154   0.0415738   0.5686018  )
        86           N   tau(  86) = (   0.7149176   0.1653490   0.5686018  )
        87           N   tau(  87) = (   0.6434610   0.2891754   0.5686018  )
        88           N   tau(  88) = (   0.5721299   0.4129322   0.5686018  )
        89           N   tau(  89) = (   0.5017703   0.5368749   0.5686018  )
        90           N   tau(  90) = (   0.4299644   0.6613882   0.5686018  )
        91           N   tau(  91) = (   0.3580991   0.7852828   0.5686018  )
        92           N   tau(  92) = (   0.9295398   0.0414368   0.5686018  )
        93           N   tau(  93) = (   0.8579089   0.1652310   0.5686018  )
        94           N   tau(  94) = (   0.7863361   0.2891328   0.5686018  )
        95           N   tau(  95) = (   0.7149254   0.4129197   0.5686018  )
        96           N   tau(  96) = (   0.6439495   0.5367424   0.5686018  )
        97           N   tau(  97) = (   0.5725771   0.6608613   0.5686018  )
        98           N   tau(  98) = (   0.5009164   0.7848219   0.5686018  )

     number of k points=     1
                       cart. coord. in units 2pi/alat
        k(    1) = (   0.0000000   0.0000000   0.0000000), wk =   1.0000000

     Dense  grid:   319414 G-vectors     FFT dimensions: ( 108, 108, 125)

     Occupations read from input 

      Spin-up

        1.0000   1.0000   1.0000   1.0000   1.0000   1.0000   1.0000   1.0000
        1.0000   1.0000   1.0000   1.0000   1.0000   1.0000   1.0000   1.0000
        1.0000   1.0000   1.0000   1.0000   1.0000   1.0000   1.0000   1.0000
        1.0000   1.0000   1.0000   1.0000   1.0000   1.0000   1.0000   1.0000
        1.0000   1.0000   1.0000   1.0000   1.0000   1.0000   1.0000   1.0000
        1.0000   1.0000   1.0000   1.0000   1.0000   1.0000   1.0000   1.0000
        1.0000   1.0000   1.0000   1.0000   1.0000   1.0000   1.0000   1.0000
        1.0000   1.0000   1.0000   1.0000   1.0000   1.0000   1.0000   1.0000
        1.0000   1.0000   1.0000   1.0000   1.0000   1.0000   1.0000   1.0000
        1.0000   1.0000   1.0000   1.0000   1.0000   1.0000   1.0000   1.0000
        1.0000   1.0000   1.0000   1.0000   1.0000   1.0000   1.0000   1.0000
        1.0000   1.0000   1.0000   1.0000   1.0000   1.0000   1.0000   1.0000
        1.0000   1.0000   1.0000   1.0000   1.0000   1.0000   1.0000   1.0000
        1.0000   1.0000   1.0000   1.0000   1.0000   1.0000   1.0000   1.0000
        1.0000   1.0000   1.0000   1.0000   1.0000   1.0000   1.0000   1.0000
        1.0000   1.0000   1.0000   1.0000   1.0000   1.0000   1.0000   1.0000
        1.0000   1.0000   1.0000   1.0000   1.0000   1.0000   1.0000   1.0000
        1.0000   1.0000   1.0000   1.0000   1.0000   1.0000   1.0000   1.0000
        1.0000   1.0000   1.0000   1.0000   1.0000   1.0000   1.0000   1.0000
        1.0000   1.0000   1.0000   1.0000   1.0000   1.0000   1.0000   1.0000
        1.0000   1.0000   1.0000   1.0000   1.0000   1.0000   1.0000   1.0000
        1.0000   1.0000   1.0000   1.0000   1.0000   1.0000   1.0000   1.0000
        1.0000   1.0000   1.0000   1.0000   1.0000   1.0000   1.0000   1.0000
        1.0000   1.0000   1.0000   1.0000   1.0000   1.0000   1.0000   1.0000
        1.0000   1.0000   1.0000   0.0000   1.0000   0.0000   0.0000   0.0000
        0.0000   0.0000   0.0000   0.0000   0.0000   0.0000   0.0000   0.0000
        0.0000   0.0000   0.0000   0.0000   0.0000   0.0000   0.0000   0.0000
        0.0000   0.0000   0.0000   0.0000   0.0000   0.0000   0.0000   0.0000
        0.0000   0.0000   0.0000   0.0000   0.0000   0.0000   0.0000   0.0000
        0.0000   0.0000   0.0000   0.0000   0.0000   0.0000   0.0000   0.0000
        0.0000   0.0000   0.0000   0.0000   0.0000

      Spin-down

        1.0000   1.0000   1.0000   1.0000   1.0000   1.0000   1.0000   1.0000
        1.0000   1.0000   1.0000   1.0000   1.0000   1.0000   1.0000   1.0000
        1.0000   1.0000   1.0000   1.0000   1.0000   1.0000   1.0000   1.0000
        1.0000   1.0000   1.0000   1.0000   1.0000   1.0000   1.0000   1.0000
        1.0000   1.0000   1.0000   1.0000   1.0000   1.0000   1.0000   1.0000
        1.0000   1.0000   1.0000   1.0000   1.0000   1.0000   1.0000   1.0000
        1.0000   1.0000   1.0000   1.0000   1.0000   1.0000   1.0000   1.0000
        1.0000   1.0000   1.0000   1.0000   1.0000   1.0000   1.0000   1.0000
        1.0000   1.0000   1.0000   1.0000   1.0000   1.0000   1.0000   1.0000
        1.0000   1.0000   1.0000   1.0000   1.0000   1.0000   1.0000   1.0000
        1.0000   1.0000   1.0000   1.0000   1.0000   1.0000   1.0000   1.0000
        1.0000   1.0000   1.0000   1.0000   1.0000   1.0000   1.0000   1.0000
        1.0000   1.0000   1.0000   1.0000   1.0000   1.0000   1.0000   1.0000
        1.0000   1.0000   1.0000   1.0000   1.0000   1.0000   1.0000   1.0000
        1.0000   1.0000   1.0000   1.0000   1.0000   1.0000   1.0000   1.0000
        1.0000   1.0000   1.0000   1.0000   1.0000   1.0000   1.0000   1.0000
        1.0000   1.0000   1.0000   1.0000   1.0000   1.0000   1.0000   1.0000
        1.0000   1.0000   1.0000   1.0000   1.0000   1.0000   1.0000   1.0000
        1.0000   1.0000   1.0000   1.0000   1.0000   1.0000   1.0000   1.0000
        1.0000   1.0000   1.0000   1.0000   1.0000   1.0000   1.0000   1.0000
        1.0000   1.0000   1.0000   1.0000   1.0000   1.0000   1.0000   1.0000
        1.0000   1.0000   1.0000   1.0000   1.0000   1.0000   1.0000   1.0000
        1.0000   1.0000   1.0000   1.0000   1.0000   1.0000   1.0000   1.0000
        1.0000   1.0000   1.0000   1.0000   1.0000   1.0000   1.0000   1.0000
        1.0000   1.0000   0.0000   1.0000   0.0000   0.0000   0.0000   0.0000
        0.0000   0.0000   0.0000   0.0000   0.0000   0.0000   0.0000   0.0000
        0.0000   0.0000   0.0000   0.0000   0.0000   0.0000   0.0000   0.0000
        0.0000   0.0000   0.0000   0.0000   0.0000   0.0000   0.0000   0.0000
        0.0000   0.0000   0.0000   0.0000   0.0000   0.0000   0.0000   0.0000
        0.0000   0.0000   0.0000   0.0000   0.0000   0.0000   0.0000   0.0000
        0.0000   0.0000   0.0000   0.0000   0.0000

     Estimated max dynamical RAM per process >     102.88 MB

     Estimated total dynamical RAM >      12.86 GB
     Generating pointlists ...
     new r_m :   0.0336 (alat units)  1.1175 (a.u.) for type    1
     new r_m :   0.0329 (alat units)  1.0922 (a.u.) for type    2
     new r_m :   0.0338 (alat units)  1.1241 (a.u.) for type    3
     new r_m :   0.0329 (alat units)  1.0922 (a.u.) for type    4
     new r_m :   0.0338 (alat units)  1.1241 (a.u.) for type    5

     Check: negative core charge=   -0.000147

     Initial potential from superposition of free atoms

     starting charge  390.98597, renormalised to  391.00000

     negative rho (up, down):  7.608E-01 1.303E-03
     Starting wfcs are  392 randomized atomic wfcs

     total cpu time spent up to now is        4.8 secs

     Self-consistent Calculation

     iteration #  1     ecut=    25.73 Ry     beta= 0.70
     CG style diagonalization
     ethr =  1.00E-02,  avg # of iterations =  3.1

     negative rho (up, down):  2.371E+00 6.563E-03

     total cpu time spent up to now is       18.1 secs

     total energy              =   -1931.87278694 Ry
     Harris-Foulkes estimate   =   -1942.34267823 Ry
     estimated scf accuracy    <      17.07491008 Ry

     total magnetization       =     1.00 Bohr mag/cell
     absolute magnetization    =     1.83 Bohr mag/cell

     iteration #  2     ecut=    25.73 Ry     beta= 0.70
     CG style diagonalization
     ethr =  4.37E-03,  avg # of iterations =  4.0

     negative rho (up, down):  2.668E+00 5.425E-03

     total cpu time spent up to now is       33.2 secs

     total energy              =   -1934.77834100 Ry
     Harris-Foulkes estimate   =   -1940.36516500 Ry
     estimated scf accuracy    <      10.76932429 Ry

     total magnetization       =     1.00 Bohr mag/cell
     absolute magnetization    =     1.43 Bohr mag/cell

     iteration #  3     ecut=    25.73 Ry     beta= 0.70
     CG style diagonalization
     ethr =  2.75E-03,  avg # of iterations =  3.9

     negative rho (up, down):  2.836E+00 5.392E-03

     total cpu time spent up to now is       42.7 secs

     total energy              =   -1936.56918541 Ry
     Harris-Foulkes estimate   =   -1938.25447380 Ry
     estimated scf accuracy    <       4.01711005 Ry

     total magnetization       =     1.00 Bohr mag/cell
     absolute magnetization    =     2.60 Bohr mag/cell

     iteration #  4     ecut=    25.73 Ry     beta= 0.70
     CG style diagonalization
     ethr =  1.03E-03,  avg # of iterations =  3.5

     negative rho (up, down):  2.947E+00 2.422E-02

     total cpu time spent up to now is       53.3 secs

     total energy              =   -1937.49274111 Ry
     Harris-Foulkes estimate   =   -1937.68017535 Ry
     estimated scf accuracy    <       0.61254597 Ry

     total magnetization       =     1.00 Bohr mag/cell
     absolute magnetization    =     2.59 Bohr mag/cell

     iteration #  5     ecut=    25.73 Ry     beta= 0.70
     CG style diagonalization
     c_bands:  5 eigenvalues not converged
     ethr =  1.57E-04,  avg # of iterations =  5.9

     negative rho (up, down):  3.034E+00 1.996E-02

     total cpu time spent up to now is       76.7 secs

     total energy              =   -1937.51854888 Ry
     Harris-Foulkes estimate   =   -1937.68453292 Ry
     estimated scf accuracy    <       0.56827630 Ry

     total magnetization       =     1.00 Bohr mag/cell
     absolute magnetization    =     2.26 Bohr mag/cell

     iteration #  6     ecut=    25.73 Ry     beta= 0.70
     CG style diagonalization
     c_bands:  2 eigenvalues not converged
     ethr =  1.45E-04,  avg # of iterations =  3.2

     negative rho (up, down):  3.034E+00 2.431E-02

     total cpu time spent up to now is       85.5 secs

     total energy              =   -1937.61142161 Ry
     Harris-Foulkes estimate   =   -1937.66037988 Ry
     estimated scf accuracy    <       0.20596672 Ry

     total magnetization       =     1.00 Bohr mag/cell
     absolute magnetization    =     2.34 Bohr mag/cell

     iteration #  7     ecut=    25.73 Ry     beta= 0.70
     CG style diagonalization
     c_bands:  2 eigenvalues not converged
     ethr =  5.27E-05,  avg # of iterations =  3.3

     negative rho (up, down):  3.028E+00 3.151E-02

     total cpu time spent up to now is       97.8 secs

     total energy              =   -1937.61995216 Ry
     Harris-Foulkes estimate   =   -1937.62662798 Ry
     estimated scf accuracy    <       0.04579304 Ry

     total magnetization       =     1.00 Bohr mag/cell
     absolute magnetization    =     2.48 Bohr mag/cell

     iteration #  8     ecut=    25.73 Ry     beta= 0.70
     CG style diagonalization
     c_bands:  1 eigenvalues not converged
     c_bands:  5 eigenvalues not converged
     ethr =  1.17E-05,  avg # of iterations =  4.0

     negative rho (up, down):  3.023E+00 3.510E-02

     total cpu time spent up to now is      110.3 secs

     total energy              =   -1937.61929791 Ry
     Harris-Foulkes estimate   =   -1937.62942983 Ry
     estimated scf accuracy    <       0.04277297 Ry

     total magnetization       =     1.00 Bohr mag/cell
     absolute magnetization    =     2.62 Bohr mag/cell

     iteration #  9     ecut=    25.73 Ry     beta= 0.70
     CG style diagonalization
     c_bands:  1 eigenvalues not converged
     ethr =  1.09E-05,  avg # of iterations =  3.3

     negative rho (up, down):  3.016E+00 3.740E-02

     total cpu time spent up to now is      118.5 secs

     total energy              =   -1937.62305576 Ry
     Harris-Foulkes estimate   =   -1937.62810409 Ry
     estimated scf accuracy    <       0.02580325 Ry

     total magnetization       =     1.00 Bohr mag/cell
     absolute magnetization    =     2.75 Bohr mag/cell

     iteration # 10     ecut=    25.73 Ry     beta= 0.70
     CG style diagonalization
     ethr =  6.60E-06,  avg # of iterations =  3.1

     negative rho (up, down):  3.016E+00 3.824E-02

     total cpu time spent up to now is      128.2 secs

     total energy              =   -1937.62375529 Ry
     Harris-Foulkes estimate   =   -1937.62799939 Ry
     estimated scf accuracy    <       0.02657842 Ry

     total magnetization       =     1.00 Bohr mag/cell
     absolute magnetization    =     2.82 Bohr mag/cell

     iteration # 11     ecut=    25.73 Ry     beta= 0.70
     CG style diagonalization
     ethr =  6.60E-06,  avg # of iterations =  3.0

     negative rho (up, down):  3.016E+00 3.821E-02

     total cpu time spent up to now is      139.2 secs

     total energy              =   -1937.62533435 Ry
     Harris-Foulkes estimate   =   -1937.62695418 Ry
     estimated scf accuracy    <       0.01049253 Ry

     total magnetization       =     1.00 Bohr mag/cell
     absolute magnetization    =     2.70 Bohr mag/cell

     iteration # 12     ecut=    25.73 Ry     beta= 0.70
     CG style diagonalization
     c_bands:  1 eigenvalues not converged
     ethr =  2.68E-06,  avg # of iterations =  3.1

     negative rho (up, down):  3.015E+00 3.790E-02

     total cpu time spent up to now is      147.6 secs

     total energy              =   -1937.62515217 Ry
     Harris-Foulkes estimate   =   -1937.62652046 Ry
     estimated scf accuracy    <       0.05868548 Ry

     total magnetization       =     1.00 Bohr mag/cell
     absolute magnetization    =     2.99 Bohr mag/cell

     iteration # 13     ecut=    25.73 Ry     beta= 0.70
     CG style diagonalization
     ethr =  2.68E-06,  avg # of iterations =  3.0

     negative rho (up, down):  2.998E+00 4.061E-02
 
     Magnetic moment per site:
     atom:    1    charge:    0.8581    magn:   -0.0004    constr:    0.0000
     atom:    2    charge:    0.8528    magn:   -0.0010    constr:    0.0000
     atom:    3    charge:    0.8532    magn:   -0.0019    constr:    0.0000
     atom:    4    charge:    0.8547    magn:   -0.0000    constr:    0.0000
     atom:    5    charge:    0.8572    magn:   -0.0002    constr:    0.0000
     atom:    6    charge:    0.8573    magn:   -0.0003    constr:    0.0000
     atom:    7    charge:    0.8568    magn:    0.0007    constr:    0.0000
     atom:    8    charge:    0.8545    magn:   -0.0005    constr:    0.0000
     atom:    9    charge:    0.8566    magn:    0.0006    constr:    0.0000
     atom:   10    charge:    0.8444    magn:   -0.0035    constr:    0.0000
     atom:   11    charge:    0.8532    magn:   -0.0009    constr:    0.0000
     atom:   12    charge:    0.8560    magn:   -0.0009    constr:    0.0000
     atom:   13    charge:    0.8532    magn:    0.0000    constr:    0.0000
     atom:   14    charge:    0.8573    magn:   -0.0005    constr:    0.0000
     atom:   15    charge:    0.8560    magn:    0.0004    constr:    0.0000
     atom:   16    charge:    0.8577    magn:   -0.0003    constr:    0.0000
     atom:   17    charge:    0.8653    magn:   -0.0050    constr:    0.0000
     atom:   18    charge:    0.8528    magn:   -0.0105    constr:    0.0000
     atom:   19    charge:    0.8640    magn:   -0.0012    constr:    0.0000
     atom:   20    charge:    0.8560    magn:   -0.0010    constr:    0.0000
     atom:   21    charge:    0.8574    magn:   -0.0006    constr:    0.0000
     atom:   22    charge:    0.8527    magn:   -0.0001    constr:    0.0000
     atom:   23    charge:    0.8504    magn:   -0.0009    constr:    0.0000
     atom:   24    charge:    0.8452    magn:    0.0004    constr:    0.0000
     atom:   25    charge:    1.5729    magn:    0.0335    constr:    0.0000
     atom:   26    charge:    0.8529    magn:   -0.0090    constr:    0.0000
     atom:   27    charge:    0.8535    magn:   -0.0012    constr:    0.0000
     atom:   28    charge:    0.8550    magn:   -0.0002    constr:    0.0000
     atom:   29    charge:    0.8524    magn:   -0.0004    constr:    0.0000
     atom:   30    charge:    0.8526    magn:    0.0000    constr:    0.0000
     atom:   31    charge:    0.8510    magn:    0.0016    constr:    0.0000
     atom:   32    charge:    0.8448    magn:    0.0014    constr:    0.0000
     atom:   33    charge:    0.8655    magn:   -0.0023    constr:    0.0000
     atom:   34    charge:    0.8447    magn:   -0.0035    constr:    0.0000
     atom:   35    charge:    0.8532    magn:   -0.0013    constr:    0.0000
     atom:   36    charge:    0.8512    magn:   -0.0008    constr:    0.0000
     atom:   37    charge:    0.8533    magn:    0.0002    constr:    0.0000
     atom:   38    charge:    0.8523    magn:    0.0008    constr:    0.0000
     atom:   39    charge:    0.8505    magn:   -0.0007    constr:    0.0000
     atom:   40    charge:    0.8578    magn:   -0.0000    constr:    0.0000
     atom:   41    charge:    0.8562    magn:    0.0006    constr:    0.0000
     atom:   42    charge:    0.8528    magn:   -0.0005    constr:    0.0000
     atom:   43    charge:    0.8504    magn:   -0.0002    constr:    0.0000
     atom:   44    charge:    0.8513    magn:   -0.0008    constr:    0.0000
     atom:   45    charge:    0.8522    magn:   -0.0003    constr:    0.0000
     atom:   46    charge:    0.8526    magn:    0.0001    constr:    0.0000
     atom:   47    charge:    0.8556    magn:    0.0010    constr:    0.0000
     atom:   48    charge:    0.8546    magn:   -0.0004    constr:    0.0000
     atom:   49    charge:    0.8581    magn:   -0.0004    constr:    0.0000
     atom:   50    charge:    2.6980    magn:    0.0057    constr:    0.0000
     atom:   51    charge:    2.6924    magn:   -0.0003    constr:    0.0000
     atom:   52    charge:    2.6881    magn:    0.0145    constr:    0.0000
     atom:   53    charge:    2.6805    magn:    0.0199    constr:    0.0000
     atom:   54    charge:    2.6953    magn:    0.0003    constr:    0.0000
     atom:   55    charge:    2.6962    magn:    0.0019    constr:    0.0000
     atom:   56    charge:    2.6961    magn:    0.0027    constr:    0.0000
     atom:   57    charge:    2.6926    magn:   -0.0005    constr:    0.0000
     atom:   58    charge:    2.6881    magn:    0.0061    constr:    0.0000
     atom:   59    charge:    2.6727    magn:    0.0243    constr:    0.0000
     atom:   60    charge:    2.6829    magn:   -0.0146    constr:    0.0000
     atom:   61    charge:    2.6827    magn:    0.0150    constr:    0.0000
     atom:   62    charge:    2.6854    magn:    0.0183    constr:    0.0000
     atom:   63    charge:    2.7024    magn:    0.0020    constr:    0.0000
     atom:   64    charge:    2.7069    magn:    0.0013    constr:    0.0000
     atom:   65    charge:    2.6907    magn:    0.0081    constr:    0.0000
     atom:   66    charge:    2.6923    magn:   -0.0159    constr:    0.0000
     atom:   67    charge:    1.7364    magn:   -0.0952    constr:    0.0000
     atom:   68    charge:    2.6737    magn:    0.0664    constr:    0.0000
     atom:   69    charge:    2.6879    magn:    0.0128    constr:    0.0000
     atom:   70    charge:    2.6943    magn:   -0.0000    constr:    0.0000
     atom:   71    charge:    2.6955    magn:    0.0027    constr:    0.0000
     atom:   72    charge:    2.6917    magn:   -0.0007    constr:    0.0000
     atom:   73    charge:    2.6870    magn:    0.0058    constr:    0.0000
     atom:   74    charge:    2.6591    magn:    0.0619    constr:    0.0000
     atom:   75    charge:    1.7377    magn:   -0.0986    constr:    0.0000
     atom:   76    charge:    2.6857    magn:   -0.0156    constr:    0.0000
     atom:   77    charge:    2.6887    magn:    0.0121    constr:    0.0000
     atom:   78    charge:    2.6965    magn:    0.0007    constr:    0.0000
     atom:   79    charge:    2.6944    magn:    0.0003    constr:    0.0000
     atom:   80    charge:    2.6998    magn:    0.0035    constr:    0.0000
     atom:   81    charge:    2.6877    magn:    0.0056    constr:    0.0000
     atom:   82    charge:    2.6930    magn:   -0.0188    constr:    0.0000
     atom:   83    charge:    2.6797    magn:    0.0150    constr:    0.0000
     atom:   84    charge:    2.6886    magn:    0.0116    constr:    0.0000
     atom:   85    charge:    2.6903    magn:    0.0027    constr:    0.0000
     atom:   86    charge:    2.6859    magn:    0.0076    constr:    0.0000
     atom:   87    charge:    2.6904    magn:    0.0008    constr:    0.0000
     atom:   88    charge:    2.6929    magn:   -0.0005    constr:    0.0000
     atom:   89    charge:    2.6915    magn:    0.0037    constr:    0.0000
     atom:   90    charge:    2.6878    magn:    0.0063    constr:    0.0000
     atom:   91    charge:    2.6914    magn:    0.0008    constr:    0.0000
     atom:   92    charge:    2.6969    magn:    0.0123    constr:    0.0000
     atom:   93    charge:    2.6832    magn:    0.0093    constr:    0.0000
     atom:   94    charge:    2.6991    magn:    0.0001    constr:    0.0000
     atom:   95    charge:    2.6915    magn:    0.0045    constr:    0.0000
     atom:   96    charge:    2.7032    magn:    0.0008    constr:    0.0000
     atom:   97    charge:    2.6942    magn:    0.0007    constr:    0.0000
     atom:   98    charge:    2.7006    magn:    0.0009    constr:    0.0000

     total cpu time spent up to now is      156.0 secs

     End of self-consistent calculation

 ------ SPIN UP ------------


          k = 0.0000 0.0000 0.0000 ( 39989 PWs)   bands (ev):

   -22.7529 -22.3715 -22.0911 -22.0875 -22.0630 -22.0408 -22.0233 -21.6698
   -21.4030 -21.3882 -21.3730 -21.2654 -21.2590 -21.1389 -21.0590 -21.0431
   -21.0275 -20.8947 -20.8862 -20.4111 -20.1944 -20.1845 -20.1608 -20.1401
   -20.1380 -20.1348 -20.1211 -20.1099 -20.1041 -19.9428 -19.9392 -19.8306
   -19.7440 -19.7392 -19.7296 -19.5952 -19.5807 -19.3664 -19.3546 -19.3403
   -19.3187 -19.2463 -19.2406 -19.1585 -19.1470 -19.1343 -19.1263 -17.7920
   -15.7837 -13.9714 -13.4102 -13.3931 -13.3609 -13.3043 -13.2827 -13.2320
   -13.1675 -13.1582 -13.1261 -13.0952 -13.0806 -12.8153 -12.7178 -12.6991
   -12.6688 -12.6272 -12.6199 -12.1993 -12.0888 -12.0789 -12.0255 -12.0175
   -11.9967 -11.9965 -11.9854 -11.9566 -11.9366 -11.7836 -11.7182 -11.5472
   -11.3256 -11.3125 -11.2869 -11.2856 -11.1688 -10.7238 -10.6714 -10.6473
   -10.5707 -10.5312 -10.4553 -10.0721  -9.9757  -9.9692  -9.9222  -9.9106
    -9.8975  -9.8448  -9.7083  -9.6122  -9.5627  -9.5438  -9.5419  -9.5281
    -9.5259  -9.5217  -9.4949  -9.4695  -9.4664  -9.4631  -9.4462  -9.4395
    -9.4056  -9.3431  -9.3396  -9.3265  -9.3150  -9.3109  -9.2922  -9.2679
    -9.1323  -9.1079  -8.8345  -8.8159  -8.8063  -8.7951  -8.7680  -8.5680
    -8.5635  -8.3661  -8.3611  -8.3390  -8.2416  -8.2342  -8.2248  -8.1555
    -8.1327  -8.0567  -8.0424  -8.0348  -8.0260  -8.0172  -7.9896  -7.9828
    -7.9651  -7.9034  -7.8887  -7.8684  -7.8591  -7.7638  -7.7246  -7.7158
    -7.6395  -7.5952  -7.5763  -7.4984  -7.2810  -7.1893  -6.8704  -6.8232
    -6.8061  -6.7624  -6.7483  -6.6235  -6.6119  -6.5779  -6.5634  -6.5601
    -6.5544  -6.5485  -6.5407  -6.5286  -6.4634  -6.3925  -6.3553  -6.3179
    -6.0731  -5.9529  -5.9466  -5.9281  -5.8834  -5.8778  -5.8697  -5.7792
    -5.3248  -5.3223  -5.2832  -5.2792  -5.1851  -5.1476  -5.0377  -5.0142
    -4.9970  -4.9787  -4.9655  -3.8029  -0.8557  -0.7379  -0.3406  -0.2379
    -0.2179  -0.1956  -0.1898  -0.1849  -0.1777  -0.0130   0.1266   0.1624
     0.2052   0.2245   0.2490   0.2621   0.2735   0.2902   0.2943   0.2977
     0.3030   0.3164   0.3758   0.3947   0.4137   0.4175   0.4554   0.5955
     0.6262   0.6305   0.6354   0.6386   0.6418   0.6435   0.6840   0.6914
     0.7229   0.7459   0.8027   0.9671   1.0653   1.0666   1.0793   1.0827
     1.0978   1.0999   1.3086   1.4806   1.5211

 ------ SPIN DOWN ----------


          k = 0.0000 0.0000 0.0000 ( 39989 PWs)   bands (ev):

   -22.6882 -22.3522 -22.0829 -22.0732 -22.0532 -22.0295 -22.0088 -21.6474
   -21.3956 -21.3703 -21.3631 -21.2557 -21.2485 -21.1228 -21.0456 -21.0384
   -21.0072 -20.8887 -20.8773 -20.3941 -20.1826 -20.1695 -20.1568 -20.1253
   -20.1234 -20.1193 -20.1100 -20.1046 -20.0801 -19.9279 -19.9253 -19.8159
   -19.7301 -19.7254 -19.7146 -19.5897 -19.5638 -19.3489 -19.3417 -19.3244
   -19.3024 -19.2300 -19.2270 -19.1433 -19.1287 -19.1189 -19.1158 -17.8499
   -15.9908 -13.9898 -13.4075 -13.3879 -13.3568 -13.3038 -13.2787 -13.2271
   -13.1653 -13.1530 -13.1215 -13.0940 -13.0791 -12.8085 -12.7121 -12.6927
   -12.6673 -12.6279 -12.6165 -12.1959 -12.0816 -12.0731 -12.0200 -12.0112
   -11.9908 -11.9883 -11.9791 -11.9528 -11.9335 -11.7965 -11.7252 -11.5419
   -11.3200 -11.3088 -11.2854 -11.2799 -11.1738 -10.7159 -10.6659 -10.6405
   -10.5677 -10.5300 -10.4569 -10.0648  -9.9701  -9.9665  -9.9164  -9.9045
    -9.8726  -9.8411  -9.6995  -9.6030  -9.5568  -9.5370  -9.5200  -9.5180
    -9.5171  -9.4888  -9.4880  -9.4624  -9.4609  -9.4554  -9.4405  -9.4347
    -9.4032  -9.3312  -9.3302  -9.3116  -9.3111  -9.2968  -9.2727  -9.2596
    -9.1424  -9.1108  -8.8276  -8.8166  -8.7998  -8.7896  -8.7615  -8.5734
    -8.4949  -8.3518  -8.3263  -8.3206  -8.2354  -8.2341  -8.2190  -8.1470
    -8.1252  -8.0540  -8.0364  -8.0278  -8.0169  -8.0097  -7.9842  -7.9602
    -7.9389  -7.9046  -7.8623  -7.8598  -7.8241  -7.7632  -7.7434  -7.7250
    -7.6326  -7.5880  -7.5738  -7.5045  -7.2883  -7.2059  -6.8183  -6.8163
    -6.7996  -6.7564  -6.7440  -6.6023  -6.5774  -6.5734  -6.5351  -6.5322
    -6.5269  -6.5254  -6.5197  -6.5015  -6.4752  -6.4072  -6.3751  -6.3206
    -6.0454  -5.9259  -5.9202  -5.9115  -5.9039  -5.8960  -5.8882  -5.7955
    -5.2990  -5.2888  -5.2563  -5.2521  -5.1716  -5.1266  -5.0114  -4.9790
    -4.9641  -4.9610  -4.9532  -4.2724  -0.7073  -0.6653  -0.1481  -0.0381
    -0.0248  -0.0080  -0.0017   0.0002   0.0085   0.0471   0.1462   0.1811
     0.2118   0.2263   0.2366   0.3250   0.3702   0.4035   0.4044   0.4336
     0.4547   0.4701   0.4747   0.4832   0.4889   0.4899   0.4954   0.6155
     0.6793   0.6875   0.6900   0.6911   0.6952   0.6981   0.7012   0.7028
     0.7380   0.7612   0.8004   1.0901   1.2580   1.2603   1.2708   1.2738
     1.2803   1.2840   1.4112   1.5577   1.6572

     highest occupied, lowest unoccupied level (ev):    -4.9610   -4.9532

!    total energy              =   -1937.62144879 Ry
     Harris-Foulkes estimate   =   -1937.62604117 Ry
     estimated scf accuracy    <       0.00535889 Ry

     total magnetization       =     1.00 Bohr mag/cell
     absolute magnetization    =     2.74 Bohr mag/cell

     convergence has been achieved in  13 iterations

     Using ACE for calculation of exact exchange

     EXX grid:   319414 G-vectors     FFT dimensions: ( 108, 108, 125)

     negative rho (up, down):  2.998E+00 4.061E-02

     EXX: now go back to refine exchange calculation

     total cpu time spent up to now is     2656.0 secs

     Self-consistent Calculation

     iteration #  1     ecut=    25.73 Ry     beta= 0.70
     CG style diagonalization
     ethr =  2.68E-06,  avg # of iterations = 24.2

     negative rho (up, down):  3.061E+00 4.364E-02

     total cpu time spent up to now is     2773.8 secs

     total energy              =   -1722.38919599 Ry
     Harris-Foulkes estimate   =   -1722.48487291 Ry
     estimated scf accuracy    <       0.13078843 Ry

     total magnetization       =     1.00 Bohr mag/cell
     absolute magnetization    =     2.89 Bohr mag/cell

     iteration #  2     ecut=    25.73 Ry     beta= 0.70
     CG style diagonalization
     ethr =  3.34E-05,  avg # of iterations =  4.7

     negative rho (up, down):  3.052E+00 4.345E-02

     total cpu time spent up to now is     2797.3 secs

     total energy              =   -1713.04436974 Ry
     Harris-Foulkes estimate   =   -1713.19893745 Ry
     estimated scf accuracy    <       0.43526906 Ry

     total magnetization       =     1.00 Bohr mag/cell
     absolute magnetization    =     2.23 Bohr mag/cell

     iteration #  3     ecut=    25.73 Ry     beta= 0.70
     CG style diagonalization
     ethr =  3.34E-05,  avg # of iterations =  3.7

     negative rho (up, down):  3.051E+00 4.343E-02

     total cpu time spent up to now is     2813.8 secs

     total energy              =   -1713.04948356 Ry
     Harris-Foulkes estimate   =   -1713.07330079 Ry
     estimated scf accuracy    <       0.10417453 Ry

     total magnetization       =     1.00 Bohr mag/cell
     absolute magnetization    =     1.94 Bohr mag/cell

     iteration #  4     ecut=    25.73 Ry     beta= 0.70
     CG style diagonalization
     ethr =  2.66E-05,  avg # of iterations =  3.0

     negative rho (up, down):  3.049E+00 4.300E-02

     total cpu time spent up to now is     2825.4 secs

     total energy              =   -1713.01649242 Ry
     Harris-Foulkes estimate   =   -1713.05504931 Ry
     estimated scf accuracy    <       0.06684779 Ry

     total magnetization       =     1.00 Bohr mag/cell
     absolute magnetization    =     2.26 Bohr mag/cell

     iteration #  5     ecut=    25.73 Ry     beta= 0.70
     CG style diagonalization
     ethr =  1.71E-05,  avg # of iterations =  3.8

     negative rho (up, down):  3.047E+00 4.331E-02
 
     Magnetic moment per site:
     atom:    1    charge:    0.8302    magn:   -0.0005    constr:    0.0000
     atom:    2    charge:    0.8245    magn:   -0.0010    constr:    0.0000
     atom:    3    charge:    0.8244    magn:   -0.0011    constr:    0.0000
     atom:    4    charge:    0.8269    magn:   -0.0007    constr:    0.0000
     atom:    5    charge:    0.8291    magn:   -0.0001    constr:    0.0000
     atom:    6    charge:    0.8291    magn:   -0.0001    constr:    0.0000
     atom:    7    charge:    0.8292    magn:   -0.0001    constr:    0.0000
     atom:    8    charge:    0.8262    magn:   -0.0005    constr:    0.0000
     atom:    9    charge:    0.8284    magn:   -0.0009    constr:    0.0000
     atom:   10    charge:    0.8157    magn:   -0.0025    constr:    0.0000
     atom:   11    charge:    0.8247    magn:   -0.0011    constr:    0.0000
     atom:   12    charge:    0.8277    magn:   -0.0011    constr:    0.0000
     atom:   13    charge:    0.8250    magn:   -0.0006    constr:    0.0000
     atom:   14    charge:    0.8291    magn:   -0.0001    constr:    0.0000
     atom:   15    charge:    0.8278    magn:   -0.0001    constr:    0.0000
     atom:   16    charge:    0.8297    magn:   -0.0005    constr:    0.0000
     atom:   17    charge:    0.8399    magn:   -0.0029    constr:    0.0000
     atom:   18    charge:    0.8253    magn:   -0.0042    constr:    0.0000
     atom:   19    charge:    0.8357    magn:   -0.0030    constr:    0.0000
     atom:   20    charge:    0.8279    magn:   -0.0010    constr:    0.0000
     atom:   21    charge:    0.8290    magn:   -0.0002    constr:    0.0000
     atom:   22    charge:    0.8243    magn:   -0.0001    constr:    0.0000
     atom:   23    charge:    0.8218    magn:   -0.0007    constr:    0.0000
     atom:   24    charge:    0.8169    magn:   -0.0011    constr:    0.0000
     atom:   25    charge:    1.5479    magn:    0.0303    constr:    0.0000
     atom:   26    charge:    0.8253    magn:   -0.0047    constr:    0.0000
     atom:   27    charge:    0.8251    magn:   -0.0012    constr:    0.0000
     atom:   28    charge:    0.8269    magn:   -0.0005    constr:    0.0000
     atom:   29    charge:    0.8241    magn:   -0.0003    constr:    0.0000
     atom:   30    charge:    0.8244    magn:   -0.0001    constr:    0.0000
     atom:   31    charge:    0.8232    magn:    0.0001    constr:    0.0000
     atom:   32    charge:    0.8163    magn:   -0.0004    constr:    0.0000
     atom:   33    charge:    0.8389    magn:   -0.0010    constr:    0.0000
     atom:   34    charge:    0.8153    magn:   -0.0021    constr:    0.0000
     atom:   35    charge:    0.8247    magn:   -0.0010    constr:    0.0000
     atom:   36    charge:    0.8228    magn:   -0.0001    constr:    0.0000
     atom:   37    charge:    0.8250    magn:   -0.0002    constr:    0.0000
     atom:   38    charge:    0.8243    magn:    0.0001    constr:    0.0000
     atom:   39    charge:    0.8217    magn:   -0.0005    constr:    0.0000
     atom:   40    charge:    0.8297    magn:   -0.0003    constr:    0.0000
     atom:   41    charge:    0.8286    magn:   -0.0005    constr:    0.0000
     atom:   42    charge:    0.8246    magn:   -0.0004    constr:    0.0000
     atom:   43    charge:    0.8222    magn:   -0.0008    constr:    0.0000
     atom:   44    charge:    0.8228    magn:   -0.0002    constr:    0.0000
     atom:   45    charge:    0.8242    magn:   -0.0004    constr:    0.0000
     atom:   46    charge:    0.8244    magn:   -0.0001    constr:    0.0000
     atom:   47    charge:    0.8278    magn:    0.0002    constr:    0.0000
     atom:   48    charge:    0.8263    magn:   -0.0003    constr:    0.0000
     atom:   49    charge:    0.8301    magn:   -0.0004    constr:    0.0000
     atom:   50    charge:    2.6826    magn:    0.0037    constr:    0.0000
     atom:   51    charge:    2.6724    magn:   -0.0005    constr:    0.0000
     atom:   52    charge:    2.6635    magn:    0.0162    constr:    0.0000
     atom:   53    charge:    2.6689    magn:    0.0056    constr:    0.0000
     atom:   54    charge:    2.6759    magn:    0.0008    constr:    0.0000
     atom:   55    charge:    2.6793    magn:    0.0003    constr:    0.0000
     atom:   56    charge:    2.6724    magn:    0.0008    constr:    0.0000
     atom:   57    charge:    2.6721    magn:   -0.0002    constr:    0.0000
     atom:   58    charge:    2.6674    magn:    0.0098    constr:    0.0000
     atom:   59    charge:    2.6599    magn:    0.0135    constr:    0.0000
     atom:   60    charge:    2.6547    magn:    0.0022    constr:    0.0000
     atom:   61    charge:    2.6707    magn:    0.0076    constr:    0.0000
     atom:   62    charge:    2.6705    magn:    0.0060    constr:    0.0000
     atom:   63    charge:    2.6806    magn:    0.0009    constr:    0.0000
     atom:   64    charge:    2.6844    magn:    0.0006    constr:    0.0000
     atom:   65    charge:    2.6723    magn:    0.0020    constr:    0.0000
     atom:   66    charge:    2.6692    magn:   -0.0033    constr:    0.0000
     atom:   67    charge:    1.6973    magn:   -0.0626    constr:    0.0000
     atom:   68    charge:    2.6714    magn:    0.0242    constr:    0.0000
     atom:   69    charge:    2.6749    magn:    0.0136    constr:    0.0000
     atom:   70    charge:    2.6760    magn:    0.0001    constr:    0.0000
     atom:   71    charge:    2.6765    magn:    0.0013    constr:    0.0000
     atom:   72    charge:    2.6724    magn:   -0.0004    constr:    0.0000
     atom:   73    charge:    2.6703    magn:    0.0035    constr:    0.0000
     atom:   74    charge:    2.6549    magn:    0.0259    constr:    0.0000
     atom:   75    charge:    1.6865    magn:   -0.0424    constr:    0.0000
     atom:   76    charge:    2.6580    magn:   -0.0026    constr:    0.0000
     atom:   77    charge:    2.6737    magn:    0.0042    constr:    0.0000
     atom:   78    charge:    2.6776    magn:    0.0001    constr:    0.0000
     atom:   79    charge:    2.6734    magn:   -0.0002    constr:    0.0000
     atom:   80    charge:    2.6799    magn:    0.0008    constr:    0.0000
     atom:   81    charge:    2.6709    magn:    0.0060    constr:    0.0000
     atom:   82    charge:    2.6689    magn:   -0.0061    constr:    0.0000
     atom:   83    charge:    2.6622    magn:    0.0159    constr:    0.0000
     atom:   84    charge:    2.6722    magn:    0.0162    constr:    0.0000
     atom:   85    charge:    2.6716    magn:    0.0032    constr:    0.0000
     atom:   86    charge:    2.6676    magn:    0.0021    constr:    0.0000
     atom:   87    charge:    2.6742    magn:   -0.0001    constr:    0.0000
     atom:   88    charge:    2.6726    magn:   -0.0004    constr:    0.0000
     atom:   89    charge:    2.6736    magn:    0.0006    constr:    0.0000
     atom:   90    charge:    2.6699    magn:    0.0108    constr:    0.0000
     atom:   91    charge:    2.6724    magn:   -0.0002    constr:    0.0000
     atom:   92    charge:    2.6794    magn:    0.0035    constr:    0.0000
     atom:   93    charge:    2.6683    magn:    0.0056    constr:    0.0000
     atom:   94    charge:    2.6775    magn:    0.0003    constr:    0.0000
     atom:   95    charge:    2.6765    magn:    0.0015    constr:    0.0000
     atom:   96    charge:    2.6846    magn:    0.0000    constr:    0.0000
     atom:   97    charge:    2.6722    magn:    0.0001    constr:    0.0000
     atom:   98    charge:    2.6833    magn:    0.0017    constr:    0.0000

     total cpu time spent up to now is     2840.1 secs

     End of self-consistent calculation

 ------ SPIN UP ------------


          k = 0.0000 0.0000 0.0000 ( 39989 PWs)   bands (ev):

   -26.2887 -25.6871 -25.4646 -25.3806 -25.3374 -25.3109 -25.2528 -24.9593
   -24.6538 -24.6063 -24.5921 -24.4758 -24.4419 -24.2680 -24.2599 -24.2248
   -24.1857 -24.0821 -24.0590 -23.5670 -23.3544 -23.2988 -23.2782 -23.2078
   -23.1878 -23.1830 -23.1730 -23.1545 -23.1391 -22.9700 -22.9659 -22.8849
   -22.7306 -22.7094 -22.6977 -22.6599 -22.6306 -22.3386 -22.3280 -22.3261
   -22.2648 -22.1669 -22.1633 -22.0509 -22.0451 -22.0197 -22.0127 -21.2408
   -19.1742 -16.6591 -15.8434 -15.7514 -15.7294 -15.6700 -15.6525 -15.5125
   -15.4759 -15.4563 -15.4367 -15.3884 -15.3693 -15.1064 -15.0555 -14.9908
   -14.9330 -14.8985 -14.8623 -14.3972 -14.3316 -14.3034 -14.2359 -14.1983
   -14.1606 -14.1538 -14.1433 -14.1161 -14.0952 -14.0330 -13.9611 -13.7240
   -13.4424 -13.4313 -13.3570 -13.3379 -13.3363 -12.7812 -12.7166 -12.6796
   -12.6016 -12.5842 -12.5053 -12.1197 -12.0083 -11.9761 -11.9599 -11.8821
   -11.8721 -11.7999 -11.6296 -11.5493 -11.5181 -11.5144 -11.4742 -11.4501
   -11.4442 -11.4379 -11.3861 -11.3623 -11.3435 -11.3347 -11.3293 -11.3216
   -11.3184 -11.3131 -11.2623 -11.2590 -11.2415 -11.1953 -11.1781 -11.1194
   -11.1142 -11.0222 -10.7128 -10.7027 -10.6093 -10.5934 -10.5798 -10.5131
   -10.3948 -10.1510 -10.1201 -10.1088 -10.0394  -9.9984  -9.9856  -9.9437
    -9.9000  -9.8828  -9.8176  -9.7659  -9.7530  -9.7465  -9.7091  -9.6927
    -9.6865  -9.6495  -9.5981  -9.5682  -9.5686  -9.5419  -9.4472  -9.4230
    -9.3366  -9.2947  -9.2862  -9.2311  -9.0378  -9.0225  -8.4886  -8.4628
    -8.4023  -8.3734  -8.3349  -8.2024  -8.1966  -8.1699  -8.1272  -8.1215
    -8.0594  -8.0414  -8.0297  -8.0263  -8.0112  -8.0009  -7.8664  -7.7605
    -7.5831  -7.5692  -7.5267  -7.3764  -7.3528  -7.3187  -7.2883  -7.2015
    -6.6717  -6.6597  -6.6449  -6.6068  -6.4825  -6.4378  -6.3074  -6.2862
    -6.2678  -6.2265  -6.2225  -4.0794  -0.6160  -0.2907  -0.0557   0.1283
     0.1557   0.1815   0.2361   0.2444   0.2696   0.3000   0.6015   0.6057
     0.6212   0.6548   0.6605   0.6768   0.9487   0.9533   0.9623   0.9768
     0.9796   0.9887   1.0307   1.0682   1.1148   1.1338   1.1495   1.3176
     1.3530   1.3608   1.4378   1.4424   1.4835   1.5121   1.5462   1.5491
     1.5549   1.5586   1.5621   1.5631   1.5665   1.6117   1.6384   1.7166
     1.7286   1.7663   1.8099   1.9174   1.9769

 ------ SPIN DOWN ----------


          k = 0.0000 0.0000 0.0000 ( 39989 PWs)   bands (ev):

   -26.2121 -25.6643 -25.4527 -25.3597 -25.3236 -25.2977 -25.2396 -24.9328
   -24.6522 -24.5900 -24.5644 -24.4703 -24.4282 -24.2494 -24.2489 -24.2135
   -24.1623 -24.0840 -24.0411 -23.5511 -23.3335 -23.2962 -23.2512 -23.1889
   -23.1708 -23.1600 -23.1440 -23.1350 -23.1118 -22.9524 -22.9480 -22.8609
   -22.7150 -22.6956 -22.6813 -22.6453 -22.6120 -22.3186 -22.3052 -22.3013
   -22.2425 -22.1538 -22.1430 -22.0352 -22.0302 -22.0122 -21.9887 -21.2842
   -19.4953 -16.6960 -15.8514 -15.7478 -15.7271 -15.6727 -15.6579 -15.5093
   -15.4736 -15.4539 -15.4347 -15.3869 -15.3705 -15.0999 -15.0558 -14.9925
   -14.9320 -14.8948 -14.8656 -14.3965 -14.3283 -14.2976 -14.2311 -14.1948
   -14.1529 -14.1501 -14.1375 -14.1144 -14.0936 -14.0456 -13.9732 -13.7187
   -13.4415 -13.4290 -13.3575 -13.3414 -13.3333 -12.7728 -12.7122 -12.6754
   -12.6006 -12.5837 -12.5103 -12.1189 -12.0091 -11.9740 -11.9441 -11.8767
   -11.8681 -11.7987 -11.6227 -11.5426 -11.5148 -11.4704 -11.4455 -11.4438
   -11.4386 -11.4327 -11.3816 -11.3578 -11.3401 -11.3316 -11.3253 -11.3132
   -11.3097 -11.3090 -11.2636 -11.2571 -11.2152 -11.1597 -11.1513 -11.1286
   -11.0844 -11.0356 -10.7105 -10.6981 -10.6041 -10.5885 -10.5741 -10.5174
   -10.2938 -10.1446 -10.0804 -10.0374 -10.0355 -10.0139  -9.9819  -9.9418
    -9.8938  -9.8867  -9.8144  -9.7613  -9.7467  -9.7394  -9.7062  -9.6868
    -9.6829  -9.5930  -9.5739  -9.5728  -9.5448  -9.4816  -9.4660  -9.4394
    -9.3312  -9.2943  -9.2812  -9.2269  -9.0547  -9.0470  -8.4822  -8.3992
    -8.3796  -8.3673  -8.3292  -8.2135  -8.1927  -8.1491  -8.1192  -8.0313
    -8.0044  -7.9795  -7.9677  -7.9544  -7.9250  -7.9006  -7.8307  -7.8111
    -7.5833  -7.5716  -7.4570  -7.3309  -7.3150  -7.2714  -7.2668  -7.2259
    -6.6125  -6.5694  -6.5368  -6.5262  -6.4073  -6.3830  -6.2289  -6.2097
    -6.1697  -6.1195  -5.8748  -5.6375  -0.2903  -0.2132   0.2116   0.3687
     0.4202   0.4328   0.4384   0.4615   0.4647   0.4750   0.8348   0.8400
     0.8445   0.8532   0.8548   0.8583   0.9930   1.0329   1.0367   1.0450
     1.0491   1.0554   1.0574   1.0588   1.0638   1.1272   1.1514   1.3305
     1.3434   1.4447   1.4553   1.4768   1.5060   1.5154   1.5752   1.6122
     1.6381   1.7323   1.7334   1.7368   1.7372   1.7412   1.7434   1.7476
     1.7797   1.7993   1.8306   2.0880   2.1034

     highest occupied, lowest unoccupied level (ev):    -6.1195   -5.8748

!    total energy              =   -1713.02987521 Ry
     Harris-Foulkes estimate   =   -1713.03691863 Ry
     estimated scf accuracy    <       0.00797074 Ry

     total magnetization       =     1.00 Bohr mag/cell
     absolute magnetization    =     1.90 Bohr mag/cell

     convergence has been achieved in   5 iterations

     Using ACE for calculation of exact exchange

     total energy              =   -1713.12759925 Ry
     Harris-Foulkes estimate   =   -1713.13464266 Ry
     est. exchange err (dexx)  =       0.09772403 Ry
     - averaged Fock potential =     193.20944403 Ry
     + Fock energy (ACE)       =     -96.76768210 Ry

     EXX: now go back to refine exchange calculation

     total cpu time spent up to now is     5233.1 secs

     Self-consistent Calculation

     iteration #  1     ecut=    25.73 Ry     beta= 0.70
     CG style diagonalization
     ethr =  1.71E-05,  avg # of iterations = 16.0

     negative rho (up, down):  3.057E+00 4.271E-02

     total cpu time spent up to now is     5312.3 secs

     total energy              =   -1712.86514947 Ry
     Harris-Foulkes estimate   =   -1713.08703873 Ry
     estimated scf accuracy    <       0.26042594 Ry

     total magnetization       =     1.00 Bohr mag/cell
     absolute magnetization    =     3.00 Bohr mag/cell

     iteration #  2     ecut=    25.73 Ry     beta= 0.70
     CG style diagonalization
     c_bands:  2 eigenvalues not converged
     c_bands:  1 eigenvalues not converged
     ethr =  6.66E-05,  avg # of iterations =  4.4

     negative rho (up, down):  3.058E+00 4.257E-02

     total cpu time spent up to now is     5329.6 secs

     total energy              =   -1712.95661184 Ry
     Harris-Foulkes estimate   =   -1713.26340144 Ry
     estimated scf accuracy    <       0.70105211 Ry

     total magnetization       =     1.00 Bohr mag/cell
     absolute magnetization    =     2.45 Bohr mag/cell

     iteration #  3     ecut=    25.73 Ry     beta= 0.70
     CG style diagonalization
     ethr =  6.66E-05,  avg # of iterations =  3.9

     negative rho (up, down):  3.055E+00 4.320E-02

     total cpu time spent up to now is     5342.2 secs

     total energy              =   -1713.03471343 Ry
     Harris-Foulkes estimate   =   -1713.04730160 Ry
     estimated scf accuracy    <       0.04224057 Ry

     total magnetization       =     1.00 Bohr mag/cell
     absolute magnetization    =     2.80 Bohr mag/cell

     iteration #  4     ecut=    25.73 Ry     beta= 0.70
     CG style diagonalization
     c_bands:  1 eigenvalues not converged
     ethr =  1.08E-05,  avg # of iterations =  3.5

     negative rho (up, down):  3.051E+00 4.412E-02

     total cpu time spent up to now is     5357.8 secs

     total energy              =   -1713.03309880 Ry
     Harris-Foulkes estimate   =   -1713.03982669 Ry
     estimated scf accuracy    <       0.02214051 Ry

     total magnetization       =     1.00 Bohr mag/cell
     absolute magnetization    =     2.71 Bohr mag/cell

     iteration #  5     ecut=    25.73 Ry     beta= 0.70
     CG style diagonalization
     ethr =  5.66E-06,  avg # of iterations =  3.4

     negative rho (up, down):  3.051E+00 4.436E-02
 
     Magnetic moment per site:
     atom:    1    charge:    0.8277    magn:   -0.0003    constr:    0.0000
     atom:    2    charge:    0.8225    magn:   -0.0011    constr:    0.0000
     atom:    3    charge:    0.8225    magn:   -0.0013    constr:    0.0000
     atom:    4    charge:    0.8246    magn:   -0.0004    constr:    0.0000
     atom:    5    charge:    0.8269    magn:   -0.0003    constr:    0.0000
     atom:    6    charge:    0.8268    magn:   -0.0002    constr:    0.0000
     atom:    7    charge:    0.8268    magn:    0.0001    constr:    0.0000
     atom:    8    charge:    0.8242    magn:   -0.0007    constr:    0.0000
     atom:    9    charge:    0.8266    magn:   -0.0006    constr:    0.0000
     atom:   10    charge:    0.8141    magn:   -0.0042    constr:    0.0000
     atom:   11    charge:    0.8231    magn:   -0.0016    constr:    0.0000
     atom:   12    charge:    0.8259    magn:   -0.0010    constr:    0.0000
     atom:   13    charge:    0.8229    magn:   -0.0005    constr:    0.0000
     atom:   14    charge:    0.8269    magn:   -0.0004    constr:    0.0000
     atom:   15    charge:    0.8256    magn:    0.0003    constr:    0.0000
     atom:   16    charge:    0.8275    magn:   -0.0006    constr:    0.0000
     atom:   17    charge:    0.8385    magn:   -0.0055    constr:    0.0000
     atom:   18    charge:    0.8253    magn:   -0.0093    constr:    0.0000
     atom:   19    charge:    0.8344    magn:   -0.0021    constr:    0.0000
     atom:   20    charge:    0.8260    magn:   -0.0011    constr:    0.0000
     atom:   21    charge:    0.8270    magn:   -0.0005    constr:    0.0000
     atom:   22    charge:    0.8216    magn:    0.0002    constr:    0.0000
     atom:   23    charge:    0.8200    magn:   -0.0007    constr:    0.0000
     atom:   24    charge:    0.8151    magn:    0.0006    constr:    0.0000
     atom:   25    charge:    1.5420    magn:    0.0413    constr:    0.0000
     atom:   26    charge:    0.8250    magn:   -0.0098    constr:    0.0000
     atom:   27    charge:    0.8233    magn:   -0.0017    constr:    0.0000
     atom:   28    charge:    0.8245    magn:   -0.0003    constr:    0.0000
     atom:   29    charge:    0.8218    magn:   -0.0002    constr:    0.0000
     atom:   30    charge:    0.8219    magn:    0.0005    constr:    0.0000
     atom:   31    charge:    0.8206    magn:    0.0017    constr:    0.0000
     atom:   32    charge:    0.8150    magn:    0.0001    constr:    0.0000
     atom:   33    charge:    0.8378    magn:   -0.0056    constr:    0.0000
     atom:   34    charge:    0.8138    magn:   -0.0040    constr:    0.0000
     atom:   35    charge:    0.8226    magn:   -0.0013    constr:    0.0000
     atom:   36    charge:    0.8206    magn:   -0.0003    constr:    0.0000
     atom:   37    charge:    0.8221    magn:    0.0008    constr:    0.0000
     atom:   38    charge:    0.8221    magn:    0.0004    constr:    0.0000
     atom:   39    charge:    0.8198    magn:   -0.0006    constr:    0.0000
     atom:   40    charge:    0.8273    magn:   -0.0002    constr:    0.0000
     atom:   41    charge:    0.8265    magn:   -0.0007    constr:    0.0000
     atom:   42    charge:    0.8225    magn:   -0.0009    constr:    0.0000
     atom:   43    charge:    0.8197    magn:   -0.0004    constr:    0.0000
     atom:   44    charge:    0.8207    magn:   -0.0003    constr:    0.0000
     atom:   45    charge:    0.8216    magn:   -0.0002    constr:    0.0000
     atom:   46    charge:    0.8217    magn:    0.0004    constr:    0.0000
     atom:   47    charge:    0.8257    magn:    0.0003    constr:    0.0000
     atom:   48    charge:    0.8242    magn:   -0.0007    constr:    0.0000
     atom:   49    charge:    0.8276    magn:   -0.0002    constr:    0.0000
     atom:   50    charge:    2.6744    magn:    0.0061    constr:    0.0000
     atom:   51    charge:    2.6637    magn:    0.0028    constr:    0.0000
     atom:   52    charge:    2.6533    magn:    0.0295    constr:    0.0000
     atom:   53    charge:    2.6659    magn:    0.0052    constr:    0.0000
     atom:   54    charge:    2.6708    magn:    0.0018    constr:    0.0000
     atom:   55    charge:    2.6724    magn:    0.0000    constr:    0.0000
     atom:   56    charge:    2.6639    magn:    0.0080    constr:    0.0000
     atom:   57    charge:    2.6655    magn:    0.0017    constr:    0.0000
     atom:   58    charge:    2.6563    magn:    0.0194    constr:    0.0000
     atom:   59    charge:    2.6587    magn:    0.0179    constr:    0.0000
     atom:   60    charge:    2.6562    magn:   -0.0083    constr:    0.0000
     atom:   61    charge:    2.6661    magn:    0.0102    constr:    0.0000
     atom:   62    charge:    2.6708    magn:    0.0051    constr:    0.0000
     atom:   63    charge:    2.6788    magn:    0.0020    constr:    0.0000
     atom:   64    charge:    2.6795    magn:    0.0018    constr:    0.0000
     atom:   65    charge:    2.6681    magn:    0.0043    constr:    0.0000
     atom:   66    charge:    2.6679    magn:   -0.0133    constr:    0.0000
     atom:   67    charge:    1.7100    magn:   -0.0983    constr:    0.0000
     atom:   68    charge:    2.6772    magn:    0.0349    constr:    0.0000
     atom:   69    charge:    2.6682    magn:    0.0112    constr:    0.0000
     atom:   70    charge:    2.6692    magn:    0.0004    constr:    0.0000
     atom:   71    charge:    2.6681    magn:    0.0046    constr:    0.0000
     atom:   72    charge:    2.6666    magn:    0.0002    constr:    0.0000
     atom:   73    charge:    2.6653    magn:    0.0082    constr:    0.0000
     atom:   74    charge:    2.6516    magn:    0.0551    constr:    0.0000
     atom:   75    charge:    1.7062    magn:   -0.1039    constr:    0.0000
     atom:   76    charge:    2.6583    magn:   -0.0115    constr:    0.0000
     atom:   77    charge:    2.6663    magn:    0.0069    constr:    0.0000
     atom:   78    charge:    2.6696    magn:    0.0032    constr:    0.0000
     atom:   79    charge:    2.6671    magn:    0.0001    constr:    0.0000
     atom:   80    charge:    2.6774    magn:    0.0018    constr:    0.0000
     atom:   81    charge:    2.6648    magn:    0.0077    constr:    0.0000
     atom:   82    charge:    2.6684    magn:   -0.0143    constr:    0.0000
     atom:   83    charge:    2.6570    magn:    0.0199    constr:    0.0000
     atom:   84    charge:    2.6546    magn:    0.0279    constr:    0.0000
     atom:   85    charge:    2.6589    magn:    0.0082    constr:    0.0000
     atom:   86    charge:    2.6505    magn:    0.0148    constr:    0.0000
     atom:   87    charge:    2.6674    magn:   -0.0001    constr:    0.0000
     atom:   88    charge:    2.6670    magn:    0.0002    constr:    0.0000
     atom:   89    charge:    2.6663    magn:    0.0050    constr:    0.0000
     atom:   90    charge:    2.6560    magn:    0.0187    constr:    0.0000
     atom:   91    charge:    2.6649    magn:    0.0019    constr:    0.0000
     atom:   92    charge:    2.6577    magn:    0.0228    constr:    0.0000
     atom:   93    charge:    2.6596    magn:    0.0077    constr:    0.0000
     atom:   94    charge:    2.6684    magn:    0.0050    constr:    0.0000
     atom:   95    charge:    2.6666    magn:    0.0033    constr:    0.0000
     atom:   96    charge:    2.6784    magn:    0.0021    constr:    0.0000
     atom:   97    charge:    2.6686    magn:    0.0022    constr:    0.0000
     atom:   98    charge:    2.6715    magn:    0.0055    constr:    0.0000

     total cpu time spent up to now is     5370.1 secs

     End of self-consistent calculation

 ------ SPIN UP ------------


          k = 0.0000 0.0000 0.0000 ( 39989 PWs)   bands (ev):

   -26.3137 -25.6795 -25.3969 -25.3583 -25.3321 -25.3100 -25.2818 -24.9372
   -24.6104 -24.5983 -24.5713 -24.4475 -24.4429 -24.2790 -24.2269 -24.2007
   -24.1923 -24.0539 -24.0314 -23.5282 -23.2883 -23.2641 -23.2336 -23.1847
   -23.1830 -23.1672 -23.1609 -23.1555 -23.1432 -22.9682 -22.9546 -22.8595
   -22.7257 -22.7201 -22.7120 -22.6069 -22.5935 -22.3237 -22.3084 -22.3037
   -22.2734 -22.1668 -22.1627 -22.0705 -22.0550 -22.0495 -22.0230 -20.9074
   -18.6296 -16.5221 -15.7944 -15.7318 -15.6934 -15.6301 -15.6002 -15.5141
   -15.4812 -15.4744 -15.4147 -15.3900 -15.3778 -15.1019 -15.0116 -14.9662
   -14.9292 -14.8834 -14.8656 -14.4006 -14.2979 -14.2866 -14.2187 -14.1810
   -14.1609 -14.1533 -14.1430 -14.1173 -14.1029 -13.9763 -13.9098 -13.6968
   -13.4107 -13.3917 -13.3677 -13.3571 -13.2802 -12.7766 -12.6990 -12.6805
   -12.5899 -12.5667 -12.4757 -12.0725 -11.9780 -11.9464 -11.9355 -11.8824
   -11.8663 -11.7823 -11.6417 -11.5484 -11.5360 -11.4827 -11.4549 -11.4409
   -11.4272 -11.4238 -11.3904 -11.3624 -11.3511 -11.3447 -11.3424 -11.3284
   -11.3138 -11.2648 -11.2396 -11.2313 -11.2306 -11.2003 -11.1754 -11.1594
   -11.0485 -10.9830 -10.7024 -10.6897 -10.6316 -10.6244 -10.6020 -10.4388
   -10.4137 -10.1367 -10.1312 -10.0984 -10.0318  -9.9823  -9.9722  -9.9475
    -9.8962  -9.8211  -9.7903  -9.7689  -9.7605  -9.7540  -9.7314  -9.7291
    -9.6973  -9.6814  -9.5908  -9.5648  -9.5563  -9.5098  -9.4319  -9.3818
    -9.3359  -9.2857  -9.2667  -9.2302  -8.9764  -8.9025  -8.4768  -8.4637
    -8.4328  -8.3854  -8.3604  -8.1709  -8.1361  -8.1053  -8.0887  -8.0663
    -8.0616  -8.0480  -8.0458  -8.0320  -8.0203  -8.0114  -7.8498  -7.7597
    -7.5228  -7.5228  -7.5011  -7.3796  -7.3702  -7.3542  -7.2730  -7.1746
    -6.6903  -6.6823  -6.6545  -6.6391  -6.5007  -6.4753  -6.3333  -6.3262
    -6.2972  -6.2763  -6.2304  -3.4732  -0.6053  -0.1313   0.0498   0.1431
     0.1774   0.1877   0.2313   0.2371   0.2555   0.3008   0.5999   0.6092
     0.6360   0.6442   0.6470   0.6597   0.9555   0.9643   0.9720   0.9774
     0.9798   0.9847   1.0513   1.1212   1.1799   1.1840   1.2246   1.3378
     1.3642   1.4002   1.4459   1.4661   1.4707   1.5063   1.5428   1.5488
     1.5573   1.5589   1.5610   1.5667   1.5912   1.6568   1.6678   1.7227
     1.7343   1.7481   1.8151   1.9043   2.0156

 ------ SPIN DOWN ----------


          k = 0.0000 0.0000 0.0000 ( 39989 PWs)   bands (ev):

   -26.2395 -25.6618 -25.3847 -25.3397 -25.3184 -25.2974 -25.2704 -24.9133
   -24.5997 -24.5770 -24.5586 -24.4356 -24.4320 -24.2660 -24.2080 -24.1892
   -24.1748 -24.0404 -24.0292 -23.5062 -23.2697 -23.2478 -23.2248 -23.1679
   -23.1605 -23.1528 -23.1445 -23.1392 -23.1274 -22.9534 -22.9416 -22.8381
   -22.7113 -22.7056 -22.6991 -22.5933 -22.5744 -22.2999 -22.2935 -22.2802
   -22.2580 -22.1511 -22.1489 -22.0489 -22.0421 -22.0354 -22.0152 -20.9555
   -18.8709 -16.5496 -15.7984 -15.7286 -15.6909 -15.6334 -15.6013 -15.5112
   -15.4796 -15.4714 -15.4124 -15.3907 -15.3787 -15.0967 -15.0096 -14.9644
   -14.9297 -14.8821 -14.8671 -14.3995 -14.2924 -14.2815 -14.2139 -14.1769
   -14.1552 -14.1485 -14.1373 -14.1145 -14.1015 -13.9898 -13.9227 -13.6933
   -13.4080 -13.3912 -13.3660 -13.3539 -13.2871 -12.7683 -12.6933 -12.6749
   -12.5892 -12.5666 -12.4803 -12.0693 -11.9748 -11.9450 -11.8934 -11.8789
   -11.8614 -11.7805 -11.6343 -11.5412 -11.4779 -11.4658 -11.4504 -11.4329
   -11.4198 -11.4193 -11.3862 -11.3580 -11.3472 -11.3400 -11.3364 -11.3248
   -11.3119 -11.2447 -11.2397 -11.2341 -11.1949 -11.1797 -11.1552 -11.1359
   -11.0629 -10.9903 -10.6974 -10.6910 -10.6258 -10.6196 -10.5975 -10.4447
   -10.3209 -10.1072 -10.0857 -10.0683 -10.0269  -9.9773  -9.9644  -9.9404
    -9.8894  -9.8221  -9.7866  -9.7660  -9.7554  -9.7472  -9.7260  -9.7256
    -9.6977  -9.6389  -9.5465  -9.5355  -9.5203  -9.5162  -9.4387  -9.3982
    -9.3296  -9.2805  -9.2627  -9.2341  -8.9887  -8.9225  -8.4716  -8.4278
    -8.3798  -8.3697  -8.3553  -8.1245  -8.1217  -8.0873  -8.0596  -8.0384
    -8.0244  -8.0133  -8.0112  -8.0023  -7.9883  -7.9840  -7.8529  -7.7380
    -7.5346  -7.5140  -7.4574  -7.3441  -7.3256  -7.3192  -7.2844  -7.1581
    -6.6494  -6.6004  -6.5949  -6.5765  -6.4863  -6.4304  -6.3040  -6.2666
    -6.2539  -6.2533  -6.1513  -4.3546  -0.2078   0.0144   0.2195   0.3953
     0.4282   0.4384   0.4500   0.4527   0.4564   0.4608   0.8362   0.8430
     0.8460   0.8490   0.8495   0.8664   1.0427   1.0506   1.0559   1.0569
     1.0609   1.0618   1.0623   1.1214   1.1660   1.1810   1.1937   1.3448
     1.3814   1.4555   1.4668   1.4716   1.4801   1.5099   1.6004   1.6560
     1.6571   1.7298   1.7314   1.7337   1.7400   1.7413   1.7449   1.7486
     1.7586   1.8151   1.8358   2.1154   2.1185

     highest occupied, lowest unoccupied level (ev):    -6.2304   -6.1513

!    total energy              =   -1713.02923752 Ry
     Harris-Foulkes estimate   =   -1713.03678808 Ry
     estimated scf accuracy    <       0.00848150 Ry

     total magnetization       =     1.00 Bohr mag/cell
     absolute magnetization    =     2.85 Bohr mag/cell

     convergence has been achieved in   5 iterations

     Using ACE for calculation of exact exchange

     total energy              =   -1713.07917520 Ry
     Harris-Foulkes estimate   =   -1713.08672577 Ry
     est. exchange err (dexx)  =       0.04993769 Ry
     - averaged Fock potential =     193.43426524 Ry
     + Fock energy (ACE)       =     -96.71652083 Ry

     EXX: now go back to refine exchange calculation

     total cpu time spent up to now is     7771.8 secs

     Self-consistent Calculation

     iteration #  1     ecut=    25.73 Ry     beta= 0.70
     CG style diagonalization
     ethr =  5.66E-06,  avg # of iterations = 22.1

     negative rho (up, down):  3.053E+00 4.439E-02

     total cpu time spent up to now is     7882.4 secs

     total energy              =   -1713.02486653 Ry
     Harris-Foulkes estimate   =   -1713.10812513 Ry
     estimated scf accuracy    <       0.09765953 Ry

     total magnetization       =     1.00 Bohr mag/cell
     absolute magnetization    =     2.84 Bohr mag/cell

     iteration #  2     ecut=    25.73 Ry     beta= 0.70
[...]

     iteration #  1     ecut=    25.73 Ry     beta= 0.70
     CG style diagonalization
     ethr =  2.68E-06,  avg # of iterations = 21.6

     negative rho (up, down):  3.057E+00 4.441E-02

     total cpu time spent up to now is    31037.8 secs

     total energy              =   -1712.95345090 Ry
     Harris-Foulkes estimate   =   -1713.09937462 Ry
     estimated scf accuracy    <       0.17174965 Ry

     total magnetization       =     1.00 Bohr mag/cell
     absolute magnetization    =     3.14 Bohr mag/cell

     iteration #  2     ecut=    25.73 Ry     beta= 0.70
     CG style diagonalization
     c_bands:  1 eigenvalues not converged
     c_bands:  3 eigenvalues not converged
     ethr =  4.39E-05,  avg # of iterations =  4.5

     negative rho (up, down):  3.120E+00 3.603E-02

     total cpu time spent up to now is    31055.5 secs

     total energy              =   -1712.91179427 Ry
     Harris-Foulkes estimate   =   -1713.22235431 Ry
     estimated scf accuracy    <       0.87017285 Ry

     total magnetization       =     1.00 Bohr mag/cell
     absolute magnetization    =     2.80 Bohr mag/cell

     iteration #  3     ecut=    25.73 Ry     beta= 0.70
     CG style diagonalization
     c_bands:  1 eigenvalues not converged
     c_bands:  1 eigenvalues not converged
     ethr =  4.39E-05,  avg # of iterations =  4.0

     negative rho (up, down):  3.091E+00 3.988E-02

     total cpu time spent up to now is    31070.7 secs

     total energy              =   -1713.07140062 Ry
     Harris-Foulkes estimate   =   -1713.10061153 Ry
     estimated scf accuracy    <       0.09630804 Ry

     total magnetization       =     1.00 Bohr mag/cell
     absolute magnetization    =     3.31 Bohr mag/cell

     iteration #  4     ecut=    25.73 Ry     beta= 0.70
     CG style diagonalization
     ethr =  2.46E-05,  avg # of iterations =  3.2

     negative rho (up, down):  3.079E+00 4.152E-02

     total cpu time spent up to now is    31082.1 secs

     total energy              =   -1713.07664137 Ry
     Harris-Foulkes estimate   =   -1713.07985732 Ry
     estimated scf accuracy    <       0.01972640 Ry

     total magnetization       =     1.00 Bohr mag/cell
     absolute magnetization    =     3.29 Bohr mag/cell

     iteration #  5     ecut=    25.73 Ry     beta= 0.70
     CG style diagonalization
     c_bands:  2 eigenvalues not converged
     ethr =  5.05E-06,  avg # of iterations =  3.6

     negative rho (up, down):  3.071E+00 4.245E-02

     total cpu time spent up to now is    31096.8 secs

     total energy              =   -1713.07632359 Ry
     Harris-Foulkes estimate   =   -1713.07774248 Ry
     estimated scf accuracy    <       0.01146848 Ry

     total magnetization       =     1.00 Bohr mag/cell
     absolute magnetization    =     3.29 Bohr mag/cell

     iteration #  6     ecut=    25.73 Ry     beta= 0.70
     CG style diagonalization
     c_bands:  2 eigenvalues not converged
     ethr =  2.93E-06,  avg # of iterations =  3.2

     negative rho (up, down):  3.048E+00 4.543E-02
 
     Magnetic moment per site:
     atom:    1    charge:    0.8285    magn:   -0.0047    constr:    0.0000
     atom:    2    charge:    0.8225    magn:   -0.0028    constr:    0.0000
     atom:    3    charge:    0.8225    magn:   -0.0015    constr:    0.0000
     atom:    4    charge:    0.8243    magn:   -0.0002    constr:    0.0000
     atom:    5    charge:    0.8268    magn:   -0.0005    constr:    0.0000
     atom:    6    charge:    0.8268    magn:   -0.0015    constr:    0.0000
     atom:    7    charge:    0.8272    magn:   -0.0034    constr:    0.0000
     atom:    8    charge:    0.8242    magn:   -0.0027    constr:    0.0000
     atom:    9    charge:    0.8264    magn:   -0.0023    constr:    0.0000
     atom:   10    charge:    0.8138    magn:   -0.0041    constr:    0.0000
     atom:   11    charge:    0.8227    magn:   -0.0006    constr:    0.0000
     atom:   12    charge:    0.8253    magn:   -0.0001    constr:    0.0000
     atom:   13    charge:    0.8225    magn:    0.0001    constr:    0.0000
     atom:   14    charge:    0.8269    magn:   -0.0017    constr:    0.0000
     atom:   15    charge:    0.8255    magn:   -0.0003    constr:    0.0000
     atom:   16    charge:    0.8273    magn:   -0.0008    constr:    0.0000
     atom:   17    charge:    0.8376    magn:   -0.0027    constr:    0.0000
     atom:   18    charge:    0.8236    magn:   -0.0069    constr:    0.0000
     atom:   19    charge:    0.8332    magn:   -0.0009    constr:    0.0000
     atom:   20    charge:    0.8253    magn:   -0.0003    constr:    0.0000
     atom:   21    charge:    0.8268    magn:   -0.0005    constr:    0.0000
     atom:   22    charge:    0.8216    magn:    0.0006    constr:    0.0000
     atom:   23    charge:    0.8197    magn:   -0.0005    constr:    0.0000
     atom:   24    charge:    0.8145    magn:    0.0012    constr:    0.0000
     atom:   25    charge:    1.5367    magn:    0.0530    constr:    0.0000
     atom:   26    charge:    0.8231    magn:   -0.0074    constr:    0.0000
     atom:   27    charge:    0.8229    magn:   -0.0009    constr:    0.0000
     atom:   28    charge:    0.8244    magn:   -0.0003    constr:    0.0000
     atom:   29    charge:    0.8217    magn:   -0.0004    constr:    0.0000
     atom:   30    charge:    0.8218    magn:    0.0004    constr:    0.0000
     atom:   31    charge:    0.8204    magn:    0.0015    constr:    0.0000
     atom:   32    charge:    0.8145    magn:    0.0002    constr:    0.0000
     atom:   33    charge:    0.8363    magn:   -0.0029    constr:    0.0000
     atom:   34    charge:    0.8136    magn:   -0.0043    constr:    0.0000
     atom:   35    charge:    0.8227    magn:   -0.0021    constr:    0.0000
     atom:   36    charge:    0.8211    magn:   -0.0027    constr:    0.0000
     atom:   37    charge:    0.8224    magn:   -0.0002    constr:    0.0000
     atom:   38    charge:    0.8219    magn:    0.0001    constr:    0.0000
     atom:   39    charge:    0.8195    magn:   -0.0003    constr:    0.0000
     atom:   40    charge:    0.8269    magn:   -0.0006    constr:    0.0000
     atom:   41    charge:    0.8265    magn:   -0.0030    constr:    0.0000
     atom:   42    charge:    0.8224    magn:   -0.0031    constr:    0.0000
     atom:   43    charge:    0.8205    magn:   -0.0050    constr:    0.0000
     atom:   44    charge:    0.8210    magn:   -0.0025    constr:    0.0000
     atom:   45    charge:    0.8214    magn:   -0.0001    constr:    0.0000
     atom:   46    charge:    0.8215    magn:    0.0008    constr:    0.0000
     atom:   47    charge:    0.8255    magn:   -0.0004    constr:    0.0000
     atom:   48    charge:    0.8242    magn:   -0.0032    constr:    0.0000
     atom:   49    charge:    0.8287    magn:   -0.0050    constr:    0.0000
     atom:   50    charge:    2.6716    magn:    0.0168    constr:    0.0000
     atom:   51    charge:    2.6631    magn:    0.0142    constr:    0.0000
     atom:   52    charge:    2.6596    magn:    0.0332    constr:    0.0000
     atom:   53    charge:    2.6662    magn:    0.0014    constr:    0.0000
     atom:   54    charge:    2.6677    magn:    0.0011    constr:    0.0000
     atom:   55    charge:    2.6696    magn:    0.0047    constr:    0.0000
     atom:   56    charge:    2.6505    magn:    0.0464    constr:    0.0000
     atom:   57    charge:    2.6644    magn:    0.0086    constr:    0.0000
     atom:   58    charge:    2.6513    magn:    0.0393    constr:    0.0000
     atom:   59    charge:    2.6595    magn:    0.0076    constr:    0.0000
     atom:   60    charge:    2.6586    magn:   -0.0070    constr:    0.0000
     atom:   61    charge:    2.6674    magn:    0.0022    constr:    0.0000
     atom:   62    charge:    2.6668    magn:    0.0017    constr:    0.0000
     atom:   63    charge:    2.6699    magn:    0.0022    constr:    0.0000
     atom:   64    charge:    2.6747    magn:    0.0053    constr:    0.0000
     atom:   65    charge:    2.6644    magn:    0.0031    constr:    0.0000
     atom:   66    charge:    2.6665    magn:   -0.0112    constr:    0.0000
     atom:   67    charge:    1.7157    magn:   -0.1206    constr:    0.0000
     atom:   68    charge:    2.6857    magn:    0.0110    constr:    0.0000
     atom:   69    charge:    2.6667    magn:    0.0008    constr:    0.0000
     atom:   70    charge:    2.6678    magn:    0.0005    constr:    0.0000
     atom:   71    charge:    2.6671    magn:    0.0023    constr:    0.0000
     atom:   72    charge:    2.6659    magn:    0.0005    constr:    0.0000
     atom:   73    charge:    2.6624    magn:    0.0043    constr:    0.0000
     atom:   74    charge:    2.6552    magn:    0.0219    constr:    0.0000
     atom:   75    charge:    1.7144    magn:   -0.1421    constr:    0.0000
     atom:   76    charge:    2.6598    magn:   -0.0106    constr:    0.0000
     atom:   77    charge:    2.6654    magn:    0.0041    constr:    0.0000
     atom:   78    charge:    2.6719    magn:    0.0027    constr:    0.0000
     atom:   79    charge:    2.6660    magn:    0.0013    constr:    0.0000
     atom:   80    charge:    2.6736    magn:   -0.0003    constr:    0.0000
     atom:   81    charge:    2.6626    magn:    0.0019    constr:    0.0000
     atom:   82    charge:    2.6673    magn:   -0.0136    constr:    0.0000
     atom:   83    charge:    2.6581    magn:    0.0079    constr:    0.0000
     atom:   84    charge:    2.6600    magn:    0.0285    constr:    0.0000
     atom:   85    charge:    2.6586    magn:    0.0215    constr:    0.0000
     atom:   86    charge:    2.6544    magn:    0.0303    constr:    0.0000
     atom:   87    charge:    2.6663    magn:    0.0004    constr:    0.0000
     atom:   88    charge:    2.6661    magn:   -0.0001    constr:    0.0000
     atom:   89    charge:    2.6629    magn:    0.0084    constr:    0.0000
     atom:   90    charge:    2.6519    magn:    0.0346    constr:    0.0000
     atom:   91    charge:    2.6665    magn:    0.0083    constr:    0.0000
     atom:   92    charge:    2.6477    magn:    0.0886    constr:    0.0000
     atom:   93    charge:    2.6620    magn:    0.0142    constr:    0.0000
     atom:   94    charge:    2.6706    magn:    0.0058    constr:    0.0000
     atom:   95    charge:    2.6674    magn:    0.0011    constr:    0.0000
     atom:   96    charge:    2.6739    magn:    0.0073    constr:    0.0000
     atom:   97    charge:    2.6649    magn:    0.0036    constr:    0.0000
     atom:   98    charge:    2.6697    magn:    0.0266    constr:    0.0000

     total cpu time spent up to now is    31107.5 secs

     End of self-consistent calculation

 ------ SPIN UP ------------


          k = 0.0000 0.0000 0.0000 ( 39989 PWs)   bands (ev):

   -25.9099 -25.7462 -25.4115 -25.4078 -25.3828 -25.2900 -25.1768 -24.8824
   -24.6237 -24.5803 -24.5708 -24.5071 -24.4284 -24.3064 -24.2224 -24.1757
   -24.1431 -24.0257 -23.9628 -23.5086 -23.3037 -23.2588 -23.2410 -23.2267
   -23.2114 -23.1784 -23.1545 -23.1192 -23.0984 -22.9992 -22.9504 -22.8189
   -22.7985 -22.7701 -22.6676 -22.5546 -22.5116 -22.3839 -22.2944 -22.2732
   -22.2687 -22.2554 -22.1939 -22.0596 -22.0515 -21.9958 -21.9910 -20.4760
   -18.2684 -16.2119 -15.7705 -15.7620 -15.7173 -15.6763 -15.6350 -15.5568
   -15.4210 -15.4031 -15.3994 -15.3940 -15.3147 -15.0827 -14.9882 -14.9570
   -14.9043 -14.8560 -14.8341 -14.3709 -14.2665 -14.2376 -14.2058 -14.1848
   -14.1670 -14.1550 -14.1385 -14.0870 -14.0547 -13.9014 -13.8327 -13.6145
   -13.4628 -13.4478 -13.3404 -13.3279 -13.1882 -12.7162 -12.6772 -12.6448
   -12.5716 -12.5263 -12.4463 -12.0002 -11.9353 -11.9227 -11.8847 -11.8825
   -11.8615 -11.8240 -11.6527 -11.4881 -11.4721 -11.4425 -11.4253 -11.4230
   -11.4131 -11.4102 -11.3936 -11.3846 -11.3740 -11.3645 -11.3383 -11.3099
   -11.2937 -11.2791 -11.2307 -11.2274 -11.1970 -11.1817 -11.1656 -11.0404
   -10.9628 -10.9616 -10.7004 -10.6948 -10.6895 -10.5981 -10.5525 -10.3741
   -10.3234 -10.1610 -10.1150 -10.1050 -10.0317  -9.9898  -9.9539  -9.8978
    -9.8902  -9.8781  -9.8262  -9.8031  -9.7682  -9.7597  -9.7061  -9.6893
    -9.6751  -9.5994  -9.5586  -9.5413  -9.5197  -9.4287  -9.3801  -9.3614
    -9.3573  -9.3285  -9.2577  -9.1450  -8.9272  -8.8943  -8.4253  -8.4190
    -8.4032  -8.3965  -8.3501  -8.2163  -8.1566  -8.1367  -8.1208  -8.1047
    -8.0959  -8.0793  -8.0335  -8.0176  -7.9715  -7.9103  -7.8328  -7.7671
    -7.5032  -7.4634  -7.4447  -7.4154  -7.3325  -7.3143  -7.2233  -7.1335
    -6.7828  -6.6859  -6.6628  -6.6510  -6.6152  -6.5105  -6.3585  -6.3455
    -6.2849  -6.2488  -5.8842  -3.0422  -0.5945  -0.1079   0.1586   0.1754
     0.2009   0.2329   0.2438   0.2502   0.2562   0.2976   0.5992   0.6059
     0.6199   0.6450   0.6496   0.6778   0.9549   0.9579   0.9644   0.9736
     0.9773   0.9821   1.1359   1.1671   1.1967   1.2024   1.2234   1.2888
     1.3665   1.4465   1.4546   1.4811   1.5148   1.5498   1.5536   1.5589
     1.5627   1.5645   1.5675   1.5738   1.6305   1.6880   1.7147   1.7272
     1.7354   1.7978   1.8334   1.9114   1.9132

 ------ SPIN DOWN ----------


          k = 0.0000 0.0000 0.0000 ( 39989 PWs)   bands (ev):

   -25.8647 -25.6747 -25.3817 -25.3685 -25.3406 -25.2726 -25.1662 -24.8311
   -24.5652 -24.5560 -24.5402 -24.4689 -24.4195 -24.2746 -24.1743 -24.1672
   -24.1254 -24.0193 -23.9492 -23.4565 -23.2339 -23.2049 -23.2021 -23.1963
   -23.1838 -23.1406 -23.1275 -23.0961 -23.0925 -22.9551 -22.9186 -22.7885
   -22.7544 -22.7300 -22.6580 -22.5288 -22.4903 -22.3079 -22.2593 -22.2430
   -22.2227 -22.2201 -22.1678 -22.0409 -22.0359 -21.9812 -21.9746 -20.6377
   -18.7269 -16.2595 -15.7620 -15.7524 -15.7089 -15.6724 -15.6371 -15.5528
   -15.4193 -15.4082 -15.3988 -15.3931 -15.3181 -15.0748 -14.9819 -14.9507
   -14.9051 -14.8609 -14.8338 -14.3681 -14.2576 -14.2297 -14.1928 -14.1732
   -14.1583 -14.1478 -14.1346 -14.0851 -14.0559 -13.9328 -13.8585 -13.6096
   -13.4558 -13.4412 -13.3390 -13.3232 -13.1998 -12.7060 -12.6696 -12.6369
   -12.5670 -12.5286 -12.4547 -11.9909 -11.9312 -11.9172 -11.8744 -11.8526
   -11.8185 -11.8170 -11.6384 -11.4793 -11.4634 -11.4298 -11.4091 -11.4023
   -11.3988 -11.3839 -11.3760 -11.3659 -11.3554 -11.3355 -11.3337 -11.3036
   -11.2315 -11.2302 -11.2071 -11.2010 -11.1846 -11.1604 -11.1273 -11.0617
   -10.9921 -10.9757 -10.6913 -10.6827 -10.6800 -10.6011 -10.5489 -10.3818
   -10.1907 -10.0661 -10.0381 -10.0274  -9.9791  -9.9670  -9.9541  -9.8895
    -9.8772  -9.8641  -9.8143  -9.7940  -9.7585  -9.7525  -9.7034  -9.6715
    -9.5988  -9.5710  -9.5226  -9.4858  -9.4796  -9.4383  -9.4164  -9.3856
    -9.3469  -9.3125  -9.2514  -9.1620  -8.9499  -8.9140  -8.4156  -8.3941
    -8.3874  -8.3493  -8.2562  -8.1207  -8.0636  -8.0425  -8.0152  -7.9874
    -7.9810  -7.9709  -7.9595  -7.9486  -7.9335  -7.9287  -7.7982  -7.7262
    -7.4547  -7.4154  -7.3818  -7.3092  -7.2971  -7.2825  -7.2304  -7.1318
    -6.6071  -6.5546  -6.5189  -6.4795  -6.4583  -6.3778  -6.2767  -6.2218
    -6.1679  -6.1165  -5.8069  -5.2325  -0.2126   0.1679   0.2728   0.3906
     0.4250   0.4278   0.4394   0.4517   0.4555   0.4579   0.8220   0.8285
     0.8393   0.8479   0.8508   0.8526   1.0403   1.0425   1.0477   1.0527
     1.0566   1.0601   1.1364   1.1727   1.1784   1.1873   1.2005   1.2814
     1.3984   1.4590   1.4687   1.4763   1.5324   1.5474   1.6224   1.6800
     1.7121   1.7275   1.7299   1.7340   1.7358   1.7378   1.7390   1.7418
     1.7888   1.8017   1.8325   2.0860   2.0953

     highest occupied, lowest unoccupied level (ev):    -5.8842   -5.8069

!    total energy              =   -1713.07123573 Ry
     Harris-Foulkes estimate   =   -1713.07664478 Ry
     estimated scf accuracy    <       0.00596229 Ry

     total magnetization       =     1.00 Bohr mag/cell
     absolute magnetization    =     3.29 Bohr mag/cell

     convergence has been achieved in   6 iterations

     Using ACE for calculation of exact exchange

!!   total energy              =   -1713.08119747 Ry
     Harris-Foulkes estimate   =   -1713.08660652 Ry
     est. exchange err (dexx)  =       0.00996174 Ry
     - averaged Fock potential =     193.42860758 Ry
     + Fock energy (ACE)       =     -96.71919581 Ry

     EXX self-consistency reached

     Writing output data file C2Cn.save/
 
     init_run     :      2.28s CPU      2.39s WALL (       1 calls)
     electrons    :   2031.39s CPU   2052.35s WALL (      13 calls)

     Called by init_run:
     wfcinit      :      1.23s CPU      1.27s WALL (       1 calls)
     potinit      :      0.56s CPU      0.57s WALL (       1 calls)
     hinit0       :      0.24s CPU      0.24s WALL (       1 calls)

     Called by electrons:
     c_bands      :   1938.78s CPU   1955.54s WALL (      74 calls)
     sum_band     :     22.29s CPU     22.49s WALL (      74 calls)
     v_of_rho     :     17.66s CPU     17.81s WALL (      76 calls)
     newd         :     10.36s CPU     10.52s WALL (      75 calls)
     PAW_pot      :     22.25s CPU     22.46s WALL (      76 calls)
     mix_rho      :      0.45s CPU      0.48s WALL (      74 calls)

     Called by c_bands:
     init_us_2    :     12.37s CPU     12.56s WALL (    6694 calls)
     rcgdiagg     :   1893.41s CPU   1909.71s WALL (     173 calls)
     wfcrot       :     45.90s CPU     46.28s WALL (     149 calls)

     Called by sum_band:
     sum_band:bec :      0.07s CPU      0.07s WALL (     148 calls)
     addusdens    :      1.05s CPU      1.08s WALL (      74 calls)

     Called by *cgdiagg:
     h_psi        :   1400.66s CPU   1410.84s WALL (  192707 calls)
     s_psi        :    282.37s CPU    286.64s WALL (  385265 calls)
     rdiaghg      :      2.85s CPU      2.87s WALL (     149 calls)

     Called by h_psi:
     h_psi:pot    :   1313.43s CPU   1322.60s WALL (  192707 calls)
     h_psi:calbec :    705.26s CPU    709.29s WALL (  192707 calls)
     vloc_psi     :    462.26s CPU    466.17s WALL (  192707 calls)
     add_vuspsi   :    144.39s CPU    145.99s WALL (  192707 calls)
     hs_1psi      :   1517.56s CPU   1529.58s WALL (  192558 calls)
     s_1psi       :    285.43s CPU    288.48s WALL (  192558 calls)

     General routines
     calbec       :    926.90s CPU    934.07s WALL (  561636 calls)
     fft          :      4.95s CPU      5.02s WALL (    1259 calls)
     ffts         :      0.16s CPU      0.16s WALL (     148 calls)
     fftw         :    468.93s CPU    472.80s WALL (  440266 calls)
     fftc         :   3682.01s CPU   3701.45s WALL ( 1254890 calls)
     fftcw        :     19.14s CPU     19.24s WALL (   12766 calls)
 
     Parallel routines
     fft_scatt_xy :     27.59s CPU     27.68s WALL ( 1709329 calls)
     fft_scatt_yz :   3718.74s CPU   3739.48s WALL ( 1709329 calls)

     EXX routines
     exx_grid     :      0.00s CPU      0.00s WALL (       1 calls)
     exxinit      :      6.11s CPU      6.17s WALL (      13 calls)
     vexx         :  31310.38s CPU  31467.52s WALL (      26 calls)
     matcalc      :     65.01s CPU     65.80s WALL (  176197 calls)
     aceupdate    :      0.07s CPU      0.08s WALL (      26 calls)
     vexxace      :     86.56s CPU     87.71s WALL (  176121 calls)
     aceinit      :  31310.58s CPU  31467.75s WALL (      26 calls)

     EXX+US  routines
     becxx        :      0.03s CPU      0.03s WALL (      13 calls)
     addusxx      :  12922.04s CPU  12986.38s WALL ( 1254890 calls)
     newdxx       :  12928.13s CPU  12994.57s WALL ( 1254890 calls)
     qvan_init    :      0.12s CPU      0.18s WALL (      26 calls)
     nlxx_pot     :     16.90s CPU     17.13s WALL (    6370 calls)

     EXX+PAW routines
     PAW_newdxx   :   1631.26s CPU   1641.55s WALL ( 1254890 calls)
 
     PWSCF        :      9h15m CPU      9h18m WALL

 
   This run was terminated on:  13:51:56   1Aug2021            

=------------------------------------------------------------------------------=
   JOB DONE.
=------------------------------------------------------------------------------=
