
     Program PWSCF v.6.4.1 starts on 10Jun2021 at 17:56:52 

     This program is part of the open-source Quantum ESPRESSO suite
     for quantum simulation of materials; please cite
         "P. Giannozzi et al., J. Phys.:Condens. Matter 21 395502 (2009);
         "P. Giannozzi et al., J. Phys.:Condens. Matter 29 465901 (2017);
          URL http://www.quantum-espresso.org", 
     in publications or presentations arising from this work. More details at
     http://www.quantum-espresso.org/quote

     Parallel version (MPI), running on    64 processors

     MPI processes distributed on     2 nodes
     R & G space division:  proc/nbgrp/npool/nimage =      64
     Waiting for input...
     Reading input from standard input

     Current dimensions of program PWSCF are:
     Max number of different atomic species (ntypx) = 10
     Max number of k-points (npk) =  40000
     Max angular momentum in pseudopotentials (lmaxx) =  3
               file N.pbe-n-kjpaw_psl.1.0.0.UPF: wavefunction(s)  2S renormalized
               file C.pbe-n-kjpaw_psl.1.0.0.UPF: wavefunction(s)  2S 2P renormalized
               file C.pbe-n-kjpaw_psl.1.0.0.UPF: wavefunction(s)  2S 2P renormalized
               file C.pbe-n-kjpaw_psl.1.0.0.UPF: wavefunction(s)  2S 2P renormalized

     --------------------------------------------
     Parameters for DFT-D3 Dispersion Correction:
     --------------------------------------------
       Reference C6 values for interpolation: 

         atom   Coordination number   C6
         B          0.000           214.36
         B          0.971           150.74
         B          1.944           106.23
         B          2.913            62.89
         B          4.586            56.06
         C1         0.000            98.23
         C1         0.987            86.49
         C1         1.998            58.72
         C1         2.999            51.56
         C1         3.984            36.41
         C2         0.000            98.23
         C2         0.987            86.49
         C2         1.998            58.72
         C2         2.999            51.56
         C2         3.984            36.41
         C3         0.000            98.23
         C3         0.987            86.49
         C3         1.998            58.72
         C3         2.999            51.56
         C3         3.984            36.41
         N          0.000            50.54
         N          0.994            44.25
         N          2.014            39.35
         N          2.990            31.16

       Values used:

         atom   Coordination number  R0_AB[au]  C6      C8
         B          3.325            3.039     62.90   2506.25
         B          3.316            3.039     62.90   2506.45
         B          3.315            3.039     62.90   2506.48
         B          3.325            3.039     62.90   2506.25
         B          3.326            3.039     62.90   2506.23
         B          3.323            3.039     62.90   2506.30
         B          3.325            3.039     62.90   2506.25
         B          3.322            3.039     62.90   2506.31
         B          3.323            3.039     62.90   2506.29
         B          3.300            3.039     62.91   2506.82
         B          3.321            3.039     62.90   2506.35
         B          3.328            3.039     62.90   2506.17
         B          3.324            3.039     62.90   2506.27
         B          3.323            3.039     62.90   2506.30
         B          3.323            3.039     62.90   2506.30
         B          3.321            3.039     62.90   2506.34
         B          3.288            3.039     62.92   2507.09
         B          3.286            3.039     62.92   2507.12
         B          3.336            3.039     62.89   2505.98
         B          3.328            3.039     62.90   2506.17
         B          3.326            3.039     62.90   2506.23
         B          3.322            3.039     62.90   2506.32
         B          3.317            3.039     62.90   2506.44
         B          3.314            3.039     62.90   2506.50
         C2         3.241            2.750     49.54   1432.92
         B          3.286            3.039     62.92   2507.12
         B          3.321            3.039     62.90   2506.35
         B          3.325            3.039     62.90   2506.25
         B          3.320            3.039     62.90   2506.38
         B          3.319            3.039     62.90   2506.39
         B          3.318            3.039     62.90   2506.43
         B          3.314            3.039     62.90   2506.50
         B          3.288            3.039     62.92   2507.09
         B          3.300            3.039     62.91   2506.82
         B          3.315            3.039     62.90   2506.48
         B          3.315            3.039     62.90   2506.48
         B          3.317            3.039     62.90   2506.44
         B          3.319            3.039     62.90   2506.39
         B          3.317            3.039     62.90   2506.44
         B          3.321            3.039     62.90   2506.34
         B          3.323            3.039     62.90   2506.29
         B          3.316            3.039     62.90   2506.45
         B          3.318            3.039     62.90   2506.41
         B          3.315            3.039     62.90   2506.48
         B          3.320            3.039     62.90   2506.38
         B          3.322            3.039     62.90   2506.32
         B          3.323            3.039     62.90   2506.30
         B          3.322            3.039     62.90   2506.31
         B          3.325            3.039     62.90   2506.25
         N          3.129            2.478     31.22    688.75
         N          3.128            2.478     31.22    688.75
         N          3.124            2.478     31.22    688.79
         N          3.128            2.478     31.22    688.76
         N          3.130            2.478     31.22    688.73
         N          3.129            2.478     31.22    688.75
         N          3.128            2.478     31.22    688.75
         N          3.128            2.478     31.22    688.75
         N          3.128            2.478     31.22    688.75
         N          3.123            2.478     31.22    688.80
         N          3.121            2.478     31.22    688.82
         N          3.132            2.478     31.22    688.72
         N          3.129            2.478     31.22    688.74
         N          3.129            2.478     31.22    688.75
         N          3.129            2.478     31.22    688.74
         N          3.128            2.478     31.22    688.75
         N          3.129            2.478     31.22    688.75
         C1         3.180            2.750     50.26   1453.67
         N          3.131            2.478     31.22    688.72
         N          3.132            2.478     31.22    688.72
         N          3.130            2.478     31.22    688.73
         N          3.129            2.478     31.22    688.75
         N          3.127            2.478     31.22    688.76
         N          3.126            2.478     31.22    688.77
         N          3.148            2.478     31.21    688.57
         C3         3.180            2.750     50.26   1453.67
         N          3.121            2.478     31.22    688.82
         N          3.128            2.478     31.22    688.76
         N          3.126            2.478     31.22    688.77
         N          3.127            2.478     31.22    688.77
         N          3.127            2.478     31.22    688.77
         N          3.126            2.478     31.22    688.77
         N          3.129            2.478     31.22    688.75
         N          3.123            2.478     31.22    688.80
         N          3.124            2.478     31.22    688.79
         N          3.126            2.478     31.22    688.77
         N          3.126            2.478     31.22    688.78
         N          3.127            2.478     31.22    688.77
         N          3.127            2.478     31.22    688.76
         N          3.128            2.478     31.22    688.75
         N          3.128            2.478     31.22    688.75
         N          3.128            2.478     31.22    688.75
         N          3.129            2.478     31.22    688.75
         N          3.126            2.478     31.22    688.77
         N          3.126            2.478     31.22    688.77
         N          3.129            2.478     31.22    688.75
         N          3.129            2.478     31.22    688.74
         N          3.128            2.478     31.22    688.75
         N          3.129            2.478     31.22    688.75

         Molecular C6 ( Ry / a.u.^6 ) =    437737.22


     gamma-point specific algorithms are used

     Subspace diagonalization in iterative solution of the eigenvalue problem:
     one sub-group per band group will be used
     scalapack distributed-memory algorithm (size of sub-group:  5*  5 procs)

     Message from routine setup:
     DEPRECATED: symmetry with ibrav=0, use correct ibrav instead
 
     Parallelization info
     --------------------
     sticks:   dense  smooth     PW     G-vecs:    dense   smooth      PW
     Min         189     189     46                19334    19334    2406
     Max         192     192     48                19350    19350    2428
     Sum       12179   12179   3051              1237963  1237963  154879
 


     bravais-lattice index     =            0
     lattice parameter (alat)  =      33.2346  a.u.
     unit-cell volume          =   36225.9437 (a.u.)^3
     number of atoms/cell      =           98
     number of atomic types    =            5
     number of electrons       =       391.00
     number of Kohn-Sham states=          245
     kinetic-energy cutoff     =      40.0000  Ry
     charge density cutoff     =     160.0000  Ry
     convergence threshold     =      1.0E-12
     mixing beta               =       0.7000
     number of iterations used =            8  plain     mixing
     Exchange-correlation      = SLA PW PBX PBC ( 1  4  3  4 0 0)
     Using LIBXC version       =    4   3   4
     nstep                     =           50


     celldm(1)=  33.234611  celldm(2)=   0.000000  celldm(3)=   0.000000
     celldm(4)=   0.000000  celldm(5)=   0.000000  celldm(6)=   0.000000

     crystal axes: (cart. coord. in units of alat)
               a(1) = (   1.001328  -0.000545   0.000000 )  
               a(2) = (  -0.501136   0.866902   0.000000 )  
               a(3) = (   0.000000   0.000000   1.137204 )  

     reciprocal axes: (cart. coord. in units 2 pi/alat)
               b(1) = (  0.998989  0.577492  0.000000 )  
               b(2) = (  0.000628  1.153896  0.000000 )  
               b(3) = (  0.000000  0.000000  0.879350 )  


     PseudoPot. # 1 for B  read from file:
     ./pseudo/B.pbe-n-kjpaw_psl.1.0.0.UPF
     MD5 check sum: 8c825a5969375aca5c2c6ad5945b3059
     Pseudo is Projector augmented-wave + core cor, Zval =  3.0
     Generated using "atomic" code by A. Dal Corso v.6.3
     Shape of augmentation charge: PSQ
     Using radial grid of 1059 points,  4 beta functions with: 
                l(1) =   0
                l(2) =   0
                l(3) =   1
                l(4) =   1
     Q(r) pseudized with 0 coefficients 


     PseudoPot. # 2 for N  read from file:
     ./pseudo/N.pbe-n-kjpaw_psl.1.0.0.UPF
     MD5 check sum: 14c48229446f9f2d411169a3abcbc3fa
     Pseudo is Projector augmented-wave + core cor, Zval =  5.0
     Generated using "atomic" code by A. Dal Corso v.6.3
     Shape of augmentation charge: PSQ
     Using radial grid of 1085 points,  4 beta functions with: 
                l(1) =   0
                l(2) =   0
                l(3) =   1
                l(4) =   1
     Q(r) pseudized with 0 coefficients 


     PseudoPot. # 3 for C  read from file:
     ./pseudo/C.pbe-n-kjpaw_psl.1.0.0.UPF
     MD5 check sum: 5f16ad9a65e90284d1d834d4ab3b0f7d
     Pseudo is Projector augmented-wave + core cor, Zval =  4.0
     Generated using "atomic" code by A. Dal Corso v.6.3
     Shape of augmentation charge: PSQ
     Using radial grid of 1073 points,  4 beta functions with: 
                l(1) =   0
                l(2) =   0
                l(3) =   1
                l(4) =   1
     Q(r) pseudized with 0 coefficients 


     PseudoPot. # 4 for C  read from file:
     ./pseudo/C.pbe-n-kjpaw_psl.1.0.0.UPF
     MD5 check sum: 5f16ad9a65e90284d1d834d4ab3b0f7d
     Pseudo is Projector augmented-wave + core cor, Zval =  4.0
     Generated using "atomic" code by A. Dal Corso v.6.3
     Shape of augmentation charge: PSQ
     Using radial grid of 1073 points,  4 beta functions with: 
                l(1) =   0
                l(2) =   0
                l(3) =   1
                l(4) =   1
     Q(r) pseudized with 0 coefficients 


     PseudoPot. # 5 for C  read from file:
     ./pseudo/C.pbe-n-kjpaw_psl.1.0.0.UPF
     MD5 check sum: 5f16ad9a65e90284d1d834d4ab3b0f7d
     Pseudo is Projector augmented-wave + core cor, Zval =  4.0
     Generated using "atomic" code by A. Dal Corso v.6.3
     Shape of augmentation charge: PSQ
     Using radial grid of 1073 points,  4 beta functions with: 
                l(1) =   0
                l(2) =   0
                l(3) =   1
                l(4) =   1
     Q(r) pseudized with 0 coefficients 


     atomic species   valence    mass     pseudopotential
        B              3.00    10.00000     B ( 1.00)
        N              5.00    14.00000     N ( 1.00)
        C1             4.00    12.00000     C ( 1.00)
        C2             4.00    12.00000     C ( 1.00)
        C3             4.00    12.00000     C ( 1.00)

     Starting magnetic structure 
     atomic species   magnetization
        B            0.000
        N            0.000
        C1           1.000
        C2           0.000
        C3           0.000

      2 Sym. Ops. (no inversion) found



   Cartesian axes

     site n.     atom                  positions (alat units)
         1           B   tau(   1) = (  -0.0000618   0.0821343   0.5686018  )
         2           B   tau(   2) = (  -0.0715706   0.2061673   0.5686018  )
         3           B   tau(   3) = (  -0.1434246   0.3303184   0.5686018  )
         4           B   tau(   4) = (  -0.2152691   0.4540965   0.5686018  )
         5           B   tau(   5) = (  -0.2865862   0.5779344   0.5686018  )
         6           B   tau(   6) = (  -0.3579210   0.7018722   0.5686018  )
         7           B   tau(   7) = (  -0.4295302   0.8255607   0.5686018  )
         8           B   tau(   8) = (   0.1429501   0.0818356   0.5686018  )
         9           B   tau(   9) = (   0.0710771   0.2052369   0.5686018  )
        10           B   tau(  10) = (  -0.0001653   0.3300024   0.5686018  )
        11           B   tau(  11) = (  -0.0730102   0.4544228   0.5686018  )
        12           B   tau(  12) = (  -0.1445645   0.5781493   0.5686018  )
        13           B   tau(  13) = (  -0.2153228   0.7018878   0.5686018  )
        14           B   tau(  14) = (  -0.2866082   0.8253894   0.5686018  )
        15           B   tau(  15) = (   0.2863990   0.0818231   0.5686018  )
        16           B   tau(  16) = (   0.2150571   0.2046772   0.5686018  )
        17           B   tau(  17) = (   0.1431713   0.3268547   0.5686018  )
        18           B   tau(  18) = (   0.0689608   0.4566097   0.5686018  )
        19           B   tau(  19) = (  -0.0029024   0.5792469   0.5686018  )
        20           B   tau(  20) = (  -0.0727830   0.7024787   0.5686018  )
        21           B   tau(  21) = (  -0.1436077   0.8255806   0.5686018  )
        22           B   tau(  22) = (   0.4292685   0.0822332   0.5686018  )
        23           B   tau(  23) = (   0.3578668   0.2059406   0.5686018  )
        24           B   tau(  24) = (   0.2863126   0.3298677   0.5686018  )
        25           C2  tau(  25) = (   0.2166971   0.4524618   0.5686018  )
        26           B   tau(  26) = (   0.1392360   0.5783305   0.5686018  )
        27           B   tau(  27) = (   0.0701444   0.7023743   0.5686018  )
        28           B   tau(  28) = (  -0.0007023   0.8257373   0.5686018  )
        29           B   tau(  29) = (   0.5721418   0.0821598   0.5686018  )
        30           B   tau(  30) = (   0.5008146   0.2059271   0.5686018  )
        31           B   tau(  31) = (   0.4293660   0.3296770   0.5686018  )
        32           B   tau(  32) = (   0.3576740   0.4534695   0.5686018  )
        33           B   tau(  33) = (   0.2887127   0.5789402   0.5686018  )
        34           B   tau(  34) = (   0.2143182   0.7014993   0.5686018  )
        35           B   tau(  35) = (   0.1424149   0.8254073   0.5686018  )
        36           B   tau(  36) = (   0.7152443   0.0820704   0.5686018  )
        37           B   tau(  37) = (   0.6436927   0.2059354   0.5686018  )
        38           B   tau(  38) = (   0.5722609   0.3296756   0.5686018  )
        39           B   tau(  39) = (   0.5007752   0.4534652   0.5686018  )
        40           B   tau(  40) = (   0.4304644   0.5777738   0.5686018  )
        41           B   tau(  41) = (   0.3579897   0.7021843   0.5686018  )
        42           B   tau(  42) = (   0.2858600   0.8252555   0.5686018  )
        43           B   tau(  43) = (   0.8584208   0.0819620   0.5686018  )
        44           B   tau(  44) = (   0.7867388   0.2059023   0.5686018  )
        45           B   tau(  45) = (   0.7151102   0.3297880   0.5686018  )
        46           B   tau(  46) = (   0.6436099   0.4534831   0.5686018  )
        47           B   tau(  47) = (   0.5725300   0.5774167   0.5686018  )
        48           B   tau(  48) = (   0.5007948   0.7016410   0.5686018  )
        49           B   tau(  49) = (   0.4290302   0.8253436   0.5686018  )
        50           N   tau(  50) = (   0.0714367   0.0409818   0.5686018  )
        51           N   tau(  51) = (  -0.0003434   0.1644844   0.5686018  )
        52           N   tau(  52) = (  -0.0716097   0.2889799   0.5686018  )
        53           N   tau(  53) = (  -0.1439024   0.4127634   0.5686018  )
        54           N   tau(  54) = (  -0.2155320   0.5365663   0.5686018  )
        55           N   tau(  55) = (  -0.2866469   0.6605142   0.5686018  )
        56           N   tau(  56) = (  -0.3580807   0.7843092   0.5686018  )
        57           N   tau(  57) = (   0.2146079   0.0408858   0.5686018  )
        58           N   tau(  58) = (   0.1429482   0.1642437   0.5686018  )
        59           N   tau(  59) = (   0.0709785   0.2875106   0.5686018  )
        60           N   tau(  60) = (  -0.0009385   0.4132972   0.5686018  )
        61           N   tau(  61) = (  -0.0737099   0.5368845   0.5686018  )
        62           N   tau(  62) = (  -0.1441036   0.6607694   0.5686018  )
        63           N   tau(  63) = (  -0.2151542   0.7843431   0.5686018  )
        64           N   tau(  64) = (   0.3578327   0.0409587   0.5686018  )
        65           N   tau(  65) = (   0.2866223   0.1640580   0.5686018  )
        66           N   tau(  66) = (   0.2150502   0.2867647   0.5686018  )
        67           C1  tau(  67) = (   0.1456426   0.4134843   0.5686018  )
        68           N   tau(  68) = (   0.0670680   0.5388497   0.5686018  )
        69           N   tau(  69) = (  -0.0016192   0.6617492   0.5686018  )
        70           N   tau(  70) = (  -0.0722547   0.7847299   0.5686018  )
        71           N   tau(  71) = (   0.5006783   0.0411547   0.5686018  )
        72           N   tau(  72) = (   0.4293062   0.1647684   0.5686018  )
        73           N   tau(  73) = (   0.3578035   0.2886263   0.5686018  )
        74           N   tau(  74) = (   0.2864205   0.4122066   0.5686018  )
        75           C3  tau(  75) = (   0.2149248   0.5334845   0.5686018  )
        76           N   tau(  76) = (   0.1417962   0.6605213   0.5686018  )
        77           N   tau(  77) = (   0.0707765   0.7845985   0.5686018  )
        78           N   tau(  78) = (   0.6437071   0.0408946   0.5686018  )
        79           N   tau(  79) = (   0.5722751   0.1646380   0.5686018  )
        80           N   tau(  80) = (   0.5008563   0.2884021   0.5686018  )
        81           N   tau(  81) = (   0.4291356   0.4121772   0.5686018  )
        82           N   tau(  82) = (   0.3593709   0.5367361   0.5686018  )
        83           N   tau(  83) = (   0.2866891   0.6611328   0.5686018  )
        84           N   tau(  84) = (   0.2141225   0.7838830   0.5686018  )
        85           N   tau(  85) = (   0.7868218   0.0408126   0.5686018  )
        86           N   tau(  86) = (   0.7152442   0.1646251   0.5686018  )
        87           N   tau(  87) = (   0.6437486   0.2884335   0.5686018  )
        88           N   tau(  88) = (   0.5721511   0.4121830   0.5686018  )
        89           N   tau(  89) = (   0.5014242   0.5361061   0.5686018  )
        90           N   tau(  90) = (   0.4294262   0.6604386   0.5686018  )
        91           N   tau(  91) = (   0.3575720   0.7844123   0.5686018  )
        92           N   tau(  92) = (   0.9298493   0.0407227   0.5686018  )
        93           N   tau(  93) = (   0.8582578   0.1645432   0.5686018  )
        94           N   tau(  94) = (   0.7866295   0.2884431   0.5686018  )
        95           N   tau(  95) = (   0.7148898   0.4121796   0.5686018  )
        96           N   tau(  96) = (   0.6436366   0.5359855   0.5686018  )
        97           N   tau(  97) = (   0.5720872   0.6600583   0.5686018  )
        98           N   tau(  98) = (   0.5004186   0.7840002   0.5686018  )

     number of k points=     1
                       cart. coord. in units 2pi/alat
        k(    1) = (   0.0000000   0.0000000   0.0000000), wk =   1.0000000

     Dense  grid:   618982 G-vectors     FFT dimensions: ( 135, 135, 160)

     Occupations read from input 

      Spin-up

        1.0000   1.0000   1.0000   1.0000   1.0000   1.0000   1.0000   1.0000
        1.0000   1.0000   1.0000   1.0000   1.0000   1.0000   1.0000   1.0000
        1.0000   1.0000   1.0000   1.0000   1.0000   1.0000   1.0000   1.0000
        1.0000   1.0000   1.0000   1.0000   1.0000   1.0000   1.0000   1.0000
        1.0000   1.0000   1.0000   1.0000   1.0000   1.0000   1.0000   1.0000
        1.0000   1.0000   1.0000   1.0000   1.0000   1.0000   1.0000   1.0000
        1.0000   1.0000   1.0000   1.0000   1.0000   1.0000   1.0000   1.0000
        1.0000   1.0000   1.0000   1.0000   1.0000   1.0000   1.0000   1.0000
        1.0000   1.0000   1.0000   1.0000   1.0000   1.0000   1.0000   1.0000
        1.0000   1.0000   1.0000   1.0000   1.0000   1.0000   1.0000   1.0000
        1.0000   1.0000   1.0000   1.0000   1.0000   1.0000   1.0000   1.0000
        1.0000   1.0000   1.0000   1.0000   1.0000   1.0000   1.0000   1.0000
        1.0000   1.0000   1.0000   1.0000   1.0000   1.0000   1.0000   1.0000
        1.0000   1.0000   1.0000   1.0000   1.0000   1.0000   1.0000   1.0000
        1.0000   1.0000   1.0000   1.0000   1.0000   1.0000   1.0000   1.0000
        1.0000   1.0000   1.0000   1.0000   1.0000   1.0000   1.0000   1.0000
        1.0000   1.0000   1.0000   1.0000   1.0000   1.0000   1.0000   1.0000
        1.0000   1.0000   1.0000   1.0000   1.0000   1.0000   1.0000   1.0000
        1.0000   1.0000   1.0000   1.0000   1.0000   1.0000   1.0000   1.0000
        1.0000   1.0000   1.0000   1.0000   1.0000   1.0000   1.0000   1.0000
        1.0000   1.0000   1.0000   1.0000   1.0000   1.0000   1.0000   1.0000
        1.0000   1.0000   1.0000   1.0000   1.0000   1.0000   1.0000   1.0000
        1.0000   1.0000   1.0000   1.0000   1.0000   1.0000   1.0000   1.0000
        1.0000   1.0000   1.0000   1.0000   1.0000   1.0000   1.0000   1.0000
        1.0000   1.0000   1.0000   0.0000   1.0000   0.0000   0.0000   0.0000
        0.0000   0.0000   0.0000   0.0000   0.0000   0.0000   0.0000   0.0000
        0.0000   0.0000   0.0000   0.0000   0.0000   0.0000   0.0000   0.0000
        0.0000   0.0000   0.0000   0.0000   0.0000   0.0000   0.0000   0.0000
        0.0000   0.0000   0.0000   0.0000   0.0000   0.0000   0.0000   0.0000
        0.0000   0.0000   0.0000   0.0000   0.0000   0.0000   0.0000   0.0000
        0.0000   0.0000   0.0000   0.0000   0.0000

      Spin-down

        1.0000   1.0000   1.0000   1.0000   1.0000   1.0000   1.0000   1.0000
        1.0000   1.0000   1.0000   1.0000   1.0000   1.0000   1.0000   1.0000
        1.0000   1.0000   1.0000   1.0000   1.0000   1.0000   1.0000   1.0000
        1.0000   1.0000   1.0000   1.0000   1.0000   1.0000   1.0000   1.0000
        1.0000   1.0000   1.0000   1.0000   1.0000   1.0000   1.0000   1.0000
        1.0000   1.0000   1.0000   1.0000   1.0000   1.0000   1.0000   1.0000
        1.0000   1.0000   1.0000   1.0000   1.0000   1.0000   1.0000   1.0000
        1.0000   1.0000   1.0000   1.0000   1.0000   1.0000   1.0000   1.0000
        1.0000   1.0000   1.0000   1.0000   1.0000   1.0000   1.0000   1.0000
        1.0000   1.0000   1.0000   1.0000   1.0000   1.0000   1.0000   1.0000
        1.0000   1.0000   1.0000   1.0000   1.0000   1.0000   1.0000   1.0000
        1.0000   1.0000   1.0000   1.0000   1.0000   1.0000   1.0000   1.0000
        1.0000   1.0000   1.0000   1.0000   1.0000   1.0000   1.0000   1.0000
        1.0000   1.0000   1.0000   1.0000   1.0000   1.0000   1.0000   1.0000
        1.0000   1.0000   1.0000   1.0000   1.0000   1.0000   1.0000   1.0000
        1.0000   1.0000   1.0000   1.0000   1.0000   1.0000   1.0000   1.0000
        1.0000   1.0000   1.0000   1.0000   1.0000   1.0000   1.0000   1.0000
        1.0000   1.0000   1.0000   1.0000   1.0000   1.0000   1.0000   1.0000
        1.0000   1.0000   1.0000   1.0000   1.0000   1.0000   1.0000   1.0000
        1.0000   1.0000   1.0000   1.0000   1.0000   1.0000   1.0000   1.0000
        1.0000   1.0000   1.0000   1.0000   1.0000   1.0000   1.0000   1.0000
        1.0000   1.0000   1.0000   1.0000   1.0000   1.0000   1.0000   1.0000
        1.0000   1.0000   1.0000   1.0000   1.0000   1.0000   1.0000   1.0000
        1.0000   1.0000   1.0000   1.0000   1.0000   1.0000   1.0000   1.0000
        1.0000   1.0000   1.0000   0.0000   0.0000   0.0000   0.0000   0.0000
        0.0000   0.0000   0.0000   0.0000   0.0000   0.0000   0.0000   0.0000
        0.0000   0.0000   0.0000   0.0000   0.0000   0.0000   0.0000   0.0000
        0.0000   0.0000   0.0000   0.0000   0.0000   0.0000   0.0000   0.0000
        0.0000   0.0000   0.0000   0.0000   0.0000   0.0000   0.0000   0.0000
        0.0000   0.0000   0.0000   0.0000   0.0000   0.0000   0.0000   0.0000
        0.0000   0.0000   0.0000   0.0000   0.0000

     Estimated max dynamical RAM per process >     122.42 MB

     Estimated total dynamical RAM >       7.65 GB
     Generating pointlists ...
     new r_m :   0.0333 (alat units)  1.1076 (a.u.) for type    1
     new r_m :   0.0332 (alat units)  1.1037 (a.u.) for type    2
     new r_m :   0.0334 (alat units)  1.1110 (a.u.) for type    3
     new r_m :   0.0332 (alat units)  1.1037 (a.u.) for type    4
     new r_m :   0.0334 (alat units)  1.1110 (a.u.) for type    5

     Check: negative core charge=   -0.000006

     Initial potential from superposition of free atoms

     starting charge  390.98597, renormalised to  391.00000

     negative rho (up, down):  5.518E-02 5.850E-02
     Starting wfcs are  392 randomized atomic wfcs
     Checking if some PAW data can be deallocated... 

     total cpu time spent up to now is        8.2 secs

     Self-consistent Calculation

     iteration #  1     ecut=    40.00 Ry     beta= 0.70
     CG style diagonalization
     ethr =  1.00E-02,  avg # of iterations =  3.1

     negative rho (up, down):  3.266E-01 1.153E-02

     total cpu time spent up to now is       45.8 secs

     total energy              =   -1933.25152629 Ry
     Harris-Foulkes estimate   =   -1946.30615422 Ry
     estimated scf accuracy    <      19.80928702 Ry

     total magnetization       =     1.00 Bohr mag/cell
     absolute magnetization    =     2.13 Bohr mag/cell

     iteration #  2     ecut=    40.00 Ry     beta= 0.70
     CG style diagonalization
     ethr =  5.07E-03,  avg # of iterations =  4.0

     negative rho (up, down):  3.617E-01 9.410E-03

     total cpu time spent up to now is       81.7 secs

     total energy              =   -1937.34257275 Ry
     Harris-Foulkes estimate   =   -1943.67193681 Ry
     estimated scf accuracy    <      12.38809519 Ry

     total magnetization       =     1.00 Bohr mag/cell
     absolute magnetization    =     2.61 Bohr mag/cell

     iteration #  3     ecut=    40.00 Ry     beta= 0.70
     CG style diagonalization
     ethr =  3.17E-03,  avg # of iterations =  3.8

     negative rho (up, down):  4.040E-01 8.940E-03

     total cpu time spent up to now is      116.2 secs

     total energy              =   -1939.68779028 Ry
     Harris-Foulkes estimate   =   -1940.49324375 Ry
     estimated scf accuracy    <       1.52611177 Ry

     total magnetization       =     1.00 Bohr mag/cell
     absolute magnetization    =     1.91 Bohr mag/cell

     iteration #  4     ecut=    40.00 Ry     beta= 0.70
     CG style diagonalization
     c_bands:  2 eigenvalues not converged
     c_bands:  1 eigenvalues not converged
     ethr =  3.90E-04,  avg # of iterations =  4.3

     negative rho (up, down):  4.494E-01 8.746E-03

     total cpu time spent up to now is      155.3 secs

     total energy              =   -1939.73797989 Ry
     Harris-Foulkes estimate   =   -1940.47504582 Ry
     estimated scf accuracy    <       2.55580705 Ry

     total magnetization       =     1.00 Bohr mag/cell
     absolute magnetization    =     1.65 Bohr mag/cell

     iteration #  5     ecut=    40.00 Ry     beta= 0.70
     CG style diagonalization
     ethr =  3.90E-04,  avg # of iterations =  3.3

     negative rho (up, down):  4.358E-01 2.655E-02

     total cpu time spent up to now is      183.4 secs

     total energy              =   -1940.20682986 Ry
     Harris-Foulkes estimate   =   -1940.28794740 Ry
     estimated scf accuracy    <       0.27439713 Ry

     total magnetization       =     1.00 Bohr mag/cell
     absolute magnetization    =     1.48 Bohr mag/cell

     iteration #  6     ecut=    40.00 Ry     beta= 0.70
     CG style diagonalization
     c_bands:  2 eigenvalues not converged
     c_bands:  2 eigenvalues not converged
     ethr =  7.02E-05,  avg # of iterations =  3.7

     negative rho (up, down):  4.503E-01 1.815E-02

     total cpu time spent up to now is      216.2 secs

     total energy              =   -1940.21920476 Ry
     Harris-Foulkes estimate   =   -1940.23787064 Ry
     estimated scf accuracy    <       0.08711149 Ry

     total magnetization       =     1.00 Bohr mag/cell
     absolute magnetization    =     1.38 Bohr mag/cell

     iteration #  7     ecut=    40.00 Ry     beta= 0.70
     CG style diagonalization
     c_bands:  4 eigenvalues not converged
     c_bands:  1 eigenvalues not converged
     ethr =  2.23E-05,  avg # of iterations =  3.5

     negative rho (up, down):  4.067E-01 6.430E-02

     total cpu time spent up to now is      246.4 secs

     total energy              =   -1940.20302218 Ry
     Harris-Foulkes estimate   =   -1940.23240435 Ry
     estimated scf accuracy    <       0.21748852 Ry

     total magnetization       =     1.00 Bohr mag/cell
     absolute magnetization    =     1.56 Bohr mag/cell

     iteration #  8     ecut=    40.00 Ry     beta= 0.70
     CG style diagonalization
     c_bands:  3 eigenvalues not converged
     ethr =  2.23E-05,  avg # of iterations =  3.2

     negative rho (up, down):  4.186E-01 6.017E-02

     total cpu time spent up to now is      273.7 secs

     total energy              =   -1940.22206537 Ry
     Harris-Foulkes estimate   =   -1940.22898908 Ry
     estimated scf accuracy    <       0.02672925 Ry

     total magnetization       =     1.00 Bohr mag/cell
     absolute magnetization    =     1.33 Bohr mag/cell

     iteration #  9     ecut=    40.00 Ry     beta= 0.70
     CG style diagonalization
     c_bands:  2 eigenvalues not converged
     c_bands:  2 eigenvalues not converged
     ethr =  6.84E-06,  avg # of iterations =  3.8

     negative rho (up, down):  4.313E-01 4.971E-02

     total cpu time spent up to now is      307.7 secs

     total energy              =   -1940.22592526 Ry
     Harris-Foulkes estimate   =   -1940.22619120 Ry
     estimated scf accuracy    <       0.00609878 Ry

     total magnetization       =     1.00 Bohr mag/cell
     absolute magnetization    =     1.29 Bohr mag/cell

     iteration # 10     ecut=    40.00 Ry     beta= 0.70
     CG style diagonalization
     c_bands:  3 eigenvalues not converged
     c_bands:  5 eigenvalues not converged
     ethr =  1.56E-06,  avg # of iterations =  3.9

     negative rho (up, down):  4.450E-01 3.779E-02

     total cpu time spent up to now is      342.4 secs

     total energy              =   -1940.22657561 Ry
     Harris-Foulkes estimate   =   -1940.22654038 Ry
     estimated scf accuracy    <       0.00403039 Ry

     total magnetization       =     1.00 Bohr mag/cell
     absolute magnetization    =     1.28 Bohr mag/cell

     iteration # 11     ecut=    40.00 Ry     beta= 0.70
     CG style diagonalization
     c_bands:  1 eigenvalues not converged
     c_bands:  5 eigenvalues not converged
     ethr =  1.03E-06,  avg # of iterations =  3.4

     negative rho (up, down):  4.545E-01 2.928E-02

     total cpu time spent up to now is      370.6 secs

     total energy              =   -1940.22678440 Ry
     Harris-Foulkes estimate   =   -1940.22681728 Ry
     estimated scf accuracy    <       0.00264528 Ry

     total magnetization       =     1.00 Bohr mag/cell
     absolute magnetization    =     1.26 Bohr mag/cell

     iteration # 12     ecut=    40.00 Ry     beta= 0.70
     CG style diagonalization
     c_bands:  1 eigenvalues not converged
     c_bands:  3 eigenvalues not converged
     ethr =  6.77E-07,  avg # of iterations =  3.2

     negative rho (up, down):  4.621E-01 2.281E-02

     total cpu time spent up to now is      397.3 secs

     total energy              =   -1940.22687963 Ry
     Harris-Foulkes estimate   =   -1940.22689772 Ry
     estimated scf accuracy    <       0.00162547 Ry

     total magnetization       =     1.00 Bohr mag/cell
     absolute magnetization    =     1.25 Bohr mag/cell

     iteration # 13     ecut=    40.00 Ry     beta= 0.70
     CG style diagonalization
     c_bands:  1 eigenvalues not converged
     ethr =  4.16E-07,  avg # of iterations =  3.2

     negative rho (up, down):  4.643E-01 2.068E-02

     total cpu time spent up to now is      423.6 secs

     total energy              =   -1940.22689154 Ry
     Harris-Foulkes estimate   =   -1940.22695705 Ry
     estimated scf accuracy    <       0.00102590 Ry

     total magnetization       =     1.00 Bohr mag/cell
     absolute magnetization    =     1.24 Bohr mag/cell

     iteration # 14     ecut=    40.00 Ry     beta= 0.70
     CG style diagonalization
     ethr =  2.62E-07,  avg # of iterations =  3.0

     negative rho (up, down):  4.746E-01 1.239E-02

     total cpu time spent up to now is      448.1 secs

     total energy              =   -1940.22683870 Ry
     Harris-Foulkes estimate   =   -1940.22691699 Ry
     estimated scf accuracy    <       0.00067160 Ry

     total magnetization       =     1.00 Bohr mag/cell
     absolute magnetization    =     1.24 Bohr mag/cell

     iteration # 15     ecut=    40.00 Ry     beta= 0.70
     CG style diagonalization
     ethr =  1.72E-07,  avg # of iterations =  3.3

     negative rho (up, down):  4.775E-01 1.059E-02

     total cpu time spent up to now is      476.3 secs

     total energy              =   -1940.22694691 Ry
     Harris-Foulkes estimate   =   -1940.22694432 Ry
     estimated scf accuracy    <       0.00011196 Ry

     total magnetization       =     1.00 Bohr mag/cell
     absolute magnetization    =     1.23 Bohr mag/cell

     iteration # 16     ecut=    40.00 Ry     beta= 0.70
     CG style diagonalization
     ethr =  2.86E-08,  avg # of iterations =  3.2

     negative rho (up, down):  4.822E-01 8.674E-03

     total cpu time spent up to now is      503.3 secs

     total energy              =   -1940.22696048 Ry
     Harris-Foulkes estimate   =   -1940.22696432 Ry
     estimated scf accuracy    <       0.00004215 Ry

     total magnetization       =     1.00 Bohr mag/cell
     absolute magnetization    =     1.23 Bohr mag/cell

     iteration # 17     ecut=    40.00 Ry     beta= 0.70
     CG style diagonalization
     ethr =  1.08E-08,  avg # of iterations =  3.6

     negative rho (up, down):  4.821E-01 8.692E-03

     total cpu time spent up to now is      534.9 secs

     total energy              =   -1940.22699114 Ry
     Harris-Foulkes estimate   =   -1940.22698799 Ry
     estimated scf accuracy    <       0.00000254 Ry

     total magnetization       =     1.00 Bohr mag/cell
     absolute magnetization    =     1.22 Bohr mag/cell

     iteration # 18     ecut=    40.00 Ry     beta= 0.70
     CG style diagonalization
     ethr =  6.49E-10,  avg # of iterations =  3.7

     negative rho (up, down):  4.821E-01 8.698E-03

     total cpu time spent up to now is      566.9 secs

     total energy              =   -1940.22699705 Ry
     Harris-Foulkes estimate   =   -1940.22699308 Ry
     estimated scf accuracy    <       0.00000193 Ry

     total magnetization       =     1.00 Bohr mag/cell
     absolute magnetization    =     1.22 Bohr mag/cell

     iteration # 19     ecut=    40.00 Ry     beta= 0.70
     CG style diagonalization
     ethr =  4.94E-10,  avg # of iterations =  3.4

     negative rho (up, down):  4.822E-01 8.714E-03

     total cpu time spent up to now is      595.7 secs

     total energy              =   -1940.22700274 Ry
     Harris-Foulkes estimate   =   -1940.22700015 Ry
     estimated scf accuracy    <       0.00000085 Ry

     total magnetization       =     1.00 Bohr mag/cell
     absolute magnetization    =     1.22 Bohr mag/cell

     iteration # 20     ecut=    40.00 Ry     beta= 0.70
     CG style diagonalization
     ethr =  2.16E-10,  avg # of iterations =  3.7

     negative rho (up, down):  4.822E-01 8.725E-03

     total cpu time spent up to now is      628.2 secs

     total energy              =   -1940.22700475 Ry
     Harris-Foulkes estimate   =   -1940.22700634 Ry
     estimated scf accuracy    <       0.00000060 Ry

     total magnetization       =     1.00 Bohr mag/cell
     absolute magnetization    =     1.21 Bohr mag/cell

     iteration # 21     ecut=    40.00 Ry     beta= 0.70
     CG style diagonalization
     ethr =  1.54E-10,  avg # of iterations =  4.0

     negative rho (up, down):  4.822E-01 8.734E-03

     total cpu time spent up to now is      663.9 secs

     total energy              =   -1940.22701022 Ry
     Harris-Foulkes estimate   =   -1940.22701310 Ry
     estimated scf accuracy    <       0.00000023 Ry

     total magnetization       =     1.00 Bohr mag/cell
     absolute magnetization    =     1.21 Bohr mag/cell

     iteration # 22     ecut=    40.00 Ry     beta= 0.70
     CG style diagonalization
     ethr =  6.01E-11,  avg # of iterations =  4.3

     negative rho (up, down):  4.821E-01 8.726E-03

     total cpu time spent up to now is      702.5 secs

     total energy              =   -1940.22701523 Ry
     Harris-Foulkes estimate   =   -1940.22701606 Ry
     estimated scf accuracy    <       0.00000012 Ry

     total magnetization       =     1.00 Bohr mag/cell
     absolute magnetization    =     1.21 Bohr mag/cell

     iteration # 23     ecut=    40.00 Ry     beta= 0.70
     CG style diagonalization
     ethr =  3.18E-11,  avg # of iterations =  3.9

     negative rho (up, down):  4.821E-01 8.728E-03

     total cpu time spent up to now is      737.7 secs

     total energy              =   -1940.22701650 Ry
     Harris-Foulkes estimate   =   -1940.22701659 Ry
     estimated scf accuracy    <       0.00000003 Ry

     total magnetization       =     1.00 Bohr mag/cell
     absolute magnetization    =     1.21 Bohr mag/cell

     iteration # 24     ecut=    40.00 Ry     beta= 0.70
     CG style diagonalization
     ethr =  6.49E-12,  avg # of iterations =  3.9

     negative rho (up, down):  4.822E-01 8.720E-03

     total cpu time spent up to now is      772.9 secs

     total energy              =   -1940.22701664 Ry
     Harris-Foulkes estimate   =   -1940.22701665 Ry
     estimated scf accuracy    <          4.7E-09 Ry

     total magnetization       =     1.00 Bohr mag/cell
     absolute magnetization    =     1.21 Bohr mag/cell

     iteration # 25     ecut=    40.00 Ry     beta= 0.70
     CG style diagonalization
     ethr =  1.21E-12,  avg # of iterations =  4.1

     negative rho (up, down):  4.822E-01 8.724E-03

     total cpu time spent up to now is      809.5 secs

     total energy              =   -1940.22701666 Ry
     Harris-Foulkes estimate   =   -1940.22701666 Ry
     estimated scf accuracy    <          1.8E-09 Ry

     total magnetization       =     1.00 Bohr mag/cell
     absolute magnetization    =     1.21 Bohr mag/cell

     iteration # 26     ecut=    40.00 Ry     beta= 0.70
     CG style diagonalization
     ethr =  4.53E-13,  avg # of iterations =  3.7

     negative rho (up, down):  4.822E-01 8.722E-03

     total cpu time spent up to now is      841.6 secs

     total energy              =   -1940.22701666 Ry
     Harris-Foulkes estimate   =   -1940.22701666 Ry
     estimated scf accuracy    <          1.1E-09 Ry

     total magnetization       =     1.00 Bohr mag/cell
     absolute magnetization    =     1.21 Bohr mag/cell

     iteration # 27     ecut=    40.00 Ry     beta= 0.70
     CG style diagonalization
     ethr =  2.92E-13,  avg # of iterations =  3.8

     negative rho (up, down):  4.822E-01 8.720E-03

     total cpu time spent up to now is      874.6 secs

     total energy              =   -1940.22701666 Ry
     Harris-Foulkes estimate   =   -1940.22701667 Ry
     estimated scf accuracy    <          1.6E-10 Ry

     total magnetization       =     1.00 Bohr mag/cell
     absolute magnetization    =     1.21 Bohr mag/cell

     iteration # 28     ecut=    40.00 Ry     beta= 0.70
     CG style diagonalization
     ethr =  1.00E-13,  avg # of iterations =  3.5

     negative rho (up, down):  4.822E-01 8.720E-03

     total cpu time spent up to now is      904.6 secs

     total energy              =   -1940.22701666 Ry
     Harris-Foulkes estimate   =   -1940.22701666 Ry
     estimated scf accuracy    <          2.8E-11 Ry

     total magnetization       =     1.00 Bohr mag/cell
     absolute magnetization    =     1.21 Bohr mag/cell

     iteration # 29     ecut=    40.00 Ry     beta= 0.70
     CG style diagonalization
     ethr =  1.00E-13,  avg # of iterations =  3.1

     negative rho (up, down):  4.822E-01 8.719E-03

     total cpu time spent up to now is      930.2 secs

     total energy              =   -1940.22701666 Ry
     Harris-Foulkes estimate   =   -1940.22701666 Ry
     estimated scf accuracy    <          6.5E-12 Ry

     total magnetization       =     1.00 Bohr mag/cell
     absolute magnetization    =     1.21 Bohr mag/cell

     iteration # 30     ecut=    40.00 Ry     beta= 0.70
     CG style diagonalization
     ethr =  1.00E-13,  avg # of iterations =  3.1

     negative rho (up, down):  4.822E-01 8.721E-03

     total cpu time spent up to now is      956.1 secs

     total energy              =   -1940.22701666 Ry
     Harris-Foulkes estimate   =   -1940.22701666 Ry
     estimated scf accuracy    <          1.0E-12 Ry

     total magnetization       =     1.00 Bohr mag/cell
     absolute magnetization    =     1.21 Bohr mag/cell

     iteration # 31     ecut=    40.00 Ry     beta= 0.70
     CG style diagonalization
     ethr =  1.00E-13,  avg # of iterations =  3.1

     negative rho (up, down):  4.822E-01 8.719E-03
 
     Magnetic moment per site:
     atom:    1    charge:    0.8307    magn:    0.0001    constr:    0.0000
     atom:    2    charge:    0.8260    magn:    0.0013    constr:    0.0000
     atom:    3    charge:    0.8268    magn:    0.0008    constr:    0.0000
     atom:    4    charge:    0.8297    magn:    0.0000    constr:    0.0000
     atom:    5    charge:    0.8321    magn:    0.0008    constr:    0.0000
     atom:    6    charge:    0.8302    magn:   -0.0001    constr:    0.0000
     atom:    7    charge:    0.8311    magn:    0.0008    constr:    0.0000
     atom:    8    charge:    0.8286    magn:    0.0007    constr:    0.0000
     atom:    9    charge:    0.8313    magn:    0.0009    constr:    0.0000
     atom:   10    charge:    0.8215    magn:    0.0064    constr:    0.0000
     atom:   11    charge:    0.8258    magn:    0.0004    constr:    0.0000
     atom:   12    charge:    0.8343    magn:    0.0009    constr:    0.0000
     atom:   13    charge:    0.8324    magn:   -0.0001    constr:    0.0000
     atom:   14    charge:    0.8302    magn:   -0.0001    constr:    0.0000
     atom:   15    charge:    0.8296    magn:    0.0006    constr:    0.0000
     atom:   16    charge:    0.8327    magn:    0.0046    constr:    0.0000
     atom:   17    charge:    0.8409    magn:    0.0153    constr:    0.0000
     atom:   18    charge:    0.8289    magn:    0.0132    constr:    0.0000
     atom:   19    charge:    0.8441    magn:    0.0072    constr:    0.0000
     atom:   20    charge:    0.8343    magn:    0.0009    constr:    0.0000
     atom:   21    charge:    0.8321    magn:    0.0008    constr:    0.0000
     atom:   22    charge:    0.8278    magn:    0.0001    constr:    0.0000
     atom:   23    charge:    0.8243    magn:    0.0003    constr:    0.0000
     atom:   24    charge:    0.8255    magn:    0.0079    constr:    0.0000
     atom:   25    charge:    1.6765    magn:    0.1736    constr:    0.0000
     atom:   26    charge:    0.8289    magn:    0.0132    constr:    0.0000
     atom:   27    charge:    0.8258    magn:    0.0004    constr:    0.0000
     atom:   28    charge:    0.8297    magn:    0.0000    constr:    0.0000
     atom:   29    charge:    0.8273    magn:    0.0006    constr:    0.0000
     atom:   30    charge:    0.8286    magn:    0.0004    constr:    0.0000
     atom:   31    charge:    0.8292    magn:    0.0026    constr:    0.0000
     atom:   32    charge:    0.8255    magn:    0.0079    constr:    0.0000
     atom:   33    charge:    0.8409    magn:    0.0153    constr:    0.0000
     atom:   34    charge:    0.8215    magn:    0.0064    constr:    0.0000
     atom:   35    charge:    0.8268    magn:    0.0008    constr:    0.0000
     atom:   36    charge:    0.8252    magn:   -0.0000    constr:    0.0000
     atom:   37    charge:    0.8258    magn:    0.0000    constr:    0.0000
     atom:   38    charge:    0.8286    magn:    0.0004    constr:    0.0000
     atom:   39    charge:    0.8243    magn:    0.0003    constr:    0.0000
     atom:   40    charge:    0.8327    magn:    0.0046    constr:    0.0000
     atom:   41    charge:    0.8313    magn:    0.0009    constr:    0.0000
     atom:   42    charge:    0.8260    magn:    0.0013    constr:    0.0000
     atom:   43    charge:    0.8251    magn:    0.0011    constr:    0.0000
     atom:   44    charge:    0.8252    magn:   -0.0000    constr:    0.0000
     atom:   45    charge:    0.8273    magn:    0.0006    constr:    0.0000
     atom:   46    charge:    0.8278    magn:    0.0001    constr:    0.0000
     atom:   47    charge:    0.8296    magn:    0.0006    constr:    0.0000
     atom:   48    charge:    0.8286    magn:    0.0007    constr:    0.0000
     atom:   49    charge:    0.8307    magn:    0.0001    constr:    0.0000
     atom:   50    charge:    2.7503    magn:   -0.0004    constr:    0.0000
     atom:   51    charge:    2.7482    magn:   -0.0005    constr:    0.0000
     atom:   52    charge:    2.7404    magn:   -0.0019    constr:    0.0000
     atom:   53    charge:    2.7496    magn:   -0.0003    constr:    0.0000
     atom:   54    charge:    2.7498    magn:   -0.0004    constr:    0.0000
     atom:   55    charge:    2.7463    magn:    0.0004    constr:    0.0000
     atom:   56    charge:    2.7458    magn:    0.0002    constr:    0.0000
     atom:   57    charge:    2.7463    magn:    0.0017    constr:    0.0000
     atom:   58    charge:    2.7460    magn:    0.0006    constr:    0.0000
     atom:   59    charge:    2.7421    magn:   -0.0033    constr:    0.0000
     atom:   60    charge:    2.7343    magn:   -0.0044    constr:    0.0000
     atom:   61    charge:    2.7503    magn:    0.0010    constr:    0.0000
     atom:   62    charge:    2.7462    magn:    0.0020    constr:    0.0000
     atom:   63    charge:    2.7463    magn:    0.0004    constr:    0.0000
     atom:   64    charge:    2.7519    magn:   -0.0003    constr:    0.0000
     atom:   65    charge:    2.7514    magn:    0.0012    constr:    0.0000
     atom:   66    charge:    2.7428    magn:    0.0063    constr:    0.0000
     atom:   67    charge:    1.6722    magn:   -0.0031    constr:    0.0000
     atom:   68    charge:    2.7606    magn:    0.0097    constr:    0.0000
     atom:   69    charge:    2.7503    magn:    0.0010    constr:    0.0000
     atom:   70    charge:    2.7498    magn:   -0.0004    constr:    0.0000
     atom:   71    charge:    2.7501    magn:   -0.0001    constr:    0.0000
     atom:   72    charge:    2.7456    magn:   -0.0003    constr:    0.0000
     atom:   73    charge:    2.7424    magn:   -0.0019    constr:    0.0000
     atom:   74    charge:    2.7324    magn:   -0.0021    constr:    0.0000
     atom:   75    charge:    1.6721    magn:   -0.0031    constr:    0.0000
     atom:   76    charge:    2.7343    magn:   -0.0044    constr:    0.0000
     atom:   77    charge:    2.7496    magn:   -0.0003    constr:    0.0000
     atom:   78    charge:    2.7485    magn:   -0.0003    constr:    0.0000
     atom:   79    charge:    2.7470    magn:   -0.0002    constr:    0.0000
     atom:   80    charge:    2.7454    magn:   -0.0003    constr:    0.0000
     atom:   81    charge:    2.7424    magn:   -0.0019    constr:    0.0000
     atom:   82    charge:    2.7428    magn:    0.0063    constr:    0.0000
     atom:   83    charge:    2.7421    magn:   -0.0033    constr:    0.0000
     atom:   84    charge:    2.7404    magn:   -0.0019    constr:    0.0000
     atom:   85    charge:    2.7459    magn:   -0.0005    constr:    0.0000
     atom:   86    charge:    2.7467    magn:    0.0001    constr:    0.0000
     atom:   87    charge:    2.7470    magn:   -0.0002    constr:    0.0000
     atom:   88    charge:    2.7456    magn:   -0.0003    constr:    0.0000
     atom:   89    charge:    2.7514    magn:    0.0012    constr:    0.0000
     atom:   90    charge:    2.7460    magn:    0.0006    constr:    0.0000
     atom:   91    charge:    2.7482    magn:   -0.0005    constr:    0.0000
     atom:   92    charge:    2.7516    magn:   -0.0002    constr:    0.0000
     atom:   93    charge:    2.7459    magn:   -0.0005    constr:    0.0000
     atom:   94    charge:    2.7485    magn:   -0.0003    constr:    0.0000
     atom:   95    charge:    2.7501    magn:   -0.0001    constr:    0.0000
     atom:   96    charge:    2.7519    magn:   -0.0003    constr:    0.0000
     atom:   97    charge:    2.7463    magn:    0.0017    constr:    0.0000
     atom:   98    charge:    2.7503    magn:   -0.0004    constr:    0.0000

     total cpu time spent up to now is      981.7 secs

     End of self-consistent calculation

 ------ SPIN UP ------------


          k = 0.0000 0.0000 0.0000 ( 77440 PWs)   bands (ev):

   -21.7343 -21.4757 -21.3702 -21.3675 -21.3500 -21.3195 -21.2308 -20.7962
   -20.6346 -20.6304 -20.6116 -20.5371 -20.5187 -20.3919 -20.2770 -20.2744
   -20.2543 -20.1342 -20.0879 -19.5386 -19.3825 -19.3768 -19.3754 -19.3644
   -19.3624 -19.3551 -19.3546 -19.3378 -19.3048 -19.1490 -19.1454 -19.0130
   -18.9629 -18.9549 -18.9320 -18.7646 -18.7493 -18.5252 -18.5228 -18.5154
   -18.5005 -18.4376 -18.4337 -18.3773 -18.3608 -18.3255 -18.3199 -17.0160
   -15.0903 -13.0983 -12.7506 -12.7491 -12.7387 -12.7059 -12.6949 -12.6443
   -12.5430 -12.5143 -12.5139 -12.4742 -12.4134 -12.1299 -12.0565 -12.0411
   -12.0236 -11.9656 -11.9517 -11.5209 -11.4020 -11.3928 -11.3720 -11.3672
   -11.3631 -11.3561 -11.3546 -11.3100 -11.2877 -11.1011 -11.0649 -10.8553
   -10.7063 -10.6959 -10.6734 -10.6617 -10.5195 -10.0512 -10.0329  -9.9868
    -9.9210  -9.8658  -9.8210  -9.3676  -9.3251  -9.3050  -9.2807  -9.2652
    -9.2611  -9.2228  -9.0226  -8.9158  -8.9145  -8.8857  -8.8842  -8.8804
    -8.8711  -8.8505  -8.8395  -8.8388  -8.8255  -8.8135  -8.8069  -8.8039
    -8.8031  -8.8016  -8.7864  -8.7747  -8.7257  -8.7028  -8.6715  -8.6550
    -8.4696  -8.4652  -8.1849  -8.1847  -8.1640  -8.1303  -8.0781  -7.8929
    -7.8884  -7.8098  -7.8054  -7.7907  -7.7254  -7.7163  -7.5341  -7.4888
    -7.4853  -7.4436  -7.4263  -7.4248  -7.4159  -7.4028  -7.3833  -7.3395
    -7.3284  -7.3242  -7.3076  -7.3021  -7.2322  -7.2224  -7.2045  -7.0520
    -7.0135  -6.9984  -6.9541  -6.8215  -6.6684  -6.5663  -6.2118  -6.1713
    -6.1629  -6.1358  -6.1255  -6.0523  -6.0482  -6.0467  -6.0351  -6.0341
    -6.0303  -6.0255  -6.0192  -5.9909  -5.8691  -5.8469  -5.8079  -5.7265
    -5.5089  -5.4397  -5.4347  -5.4186  -5.3475  -5.2505  -5.2033  -5.1640
    -4.7725  -4.7668  -4.7491  -4.7482  -4.6814  -4.6400  -4.5433  -4.5165
    -4.4797  -4.4739  -4.3268  -3.5478  -0.0958   0.1802   0.7045   0.7081
     0.7208   0.7213   0.7314   0.7432   0.7981   0.8000   0.8174   0.8190
     0.8191   0.8323   0.8411   0.8615   0.8698   0.8791   0.9068   0.9365
     0.9367   1.1273   1.2139   1.2217   1.2398   1.2662   1.2946   1.3284
     1.3288   1.3311   1.3415   1.3445   1.3752   1.4405   1.4409   1.4422
     1.4508   1.4539   1.4730   1.8829   2.0979   2.1016   2.1037   2.1091
     2.1156   2.1161   2.1319   2.2077   2.3073

 ------ SPIN DOWN ----------


          k = 0.0000 0.0000 0.0000 ( 77440 PWs)   bands (ev):

   -21.7254 -21.4387 -21.3684 -21.3663 -21.3480 -21.3149 -21.2093 -20.7689
   -20.6334 -20.6269 -20.6071 -20.5344 -20.5123 -20.3839 -20.2736 -20.2712
   -20.2500 -20.1296 -20.0704 -19.5225 -19.3814 -19.3748 -19.3746 -19.3630
   -19.3605 -19.3548 -19.3530 -19.3336 -19.2984 -19.1466 -19.1398 -19.0090
   -18.9624 -18.9530 -18.9284 -18.7621 -18.7409 -18.5246 -18.5198 -18.5142
   -18.4980 -18.4361 -18.4329 -18.3758 -18.3608 -18.3241 -18.3177 -16.8931
   -15.0338 -13.0092 -12.7452 -12.7451 -12.7335 -12.7021 -12.6915 -12.6367
   -12.5393 -12.5084 -12.5080 -12.4627 -12.3988 -12.1181 -12.0516 -12.0353
   -12.0206 -11.9587 -11.9421 -11.4976 -11.3869 -11.3847 -11.3692 -11.3649
   -11.3603 -11.3525 -11.3520 -11.3002 -11.2762 -11.0923 -11.0457 -10.8369
   -10.7019 -10.6924 -10.6635 -10.6563 -10.5038 -10.0422 -10.0244  -9.9801
    -9.9110  -9.8584  -9.8105  -9.3589  -9.3134  -9.2844  -9.2761  -9.2605
    -9.2579  -9.2203  -9.0097  -8.9091  -8.9026  -8.8847  -8.8819  -8.8762
    -8.8686  -8.8460  -8.8357  -8.8230  -8.8106  -8.8052  -8.7994  -8.7991
    -8.7983  -8.7947  -8.7708  -8.7549  -8.7182  -8.6592  -8.6427  -8.6174
    -8.4614  -8.4542  -8.1845  -8.1829  -8.1630  -8.1183  -8.0698  -7.8874
    -7.8141  -7.8014  -7.7953  -7.7737  -7.7087  -7.6781  -7.5245  -7.4840
    -7.4815  -7.4406  -7.4247  -7.4234  -7.3997  -7.3814  -7.3637  -7.3375
    -7.3153  -7.3124  -7.3003  -7.2909  -7.1982  -7.1931  -7.1676  -7.0409
    -7.0109  -6.9967  -6.9413  -6.8075  -6.6629  -6.5589  -6.1678  -6.1619
    -6.1343  -6.1160  -6.1134  -6.0469  -6.0424  -6.0403  -6.0282  -6.0253
    -6.0198  -6.0198  -6.0046  -5.9651  -5.8416  -5.8213  -5.7871  -5.7186
    -5.4760  -5.4339  -5.4231  -5.4068  -5.3107  -5.2317  -5.1918  -5.1416
    -4.7621  -4.7529  -4.7421  -4.7413  -4.6677  -4.6347  -4.5281  -4.5109
    -4.4751  -4.4683  -4.2456  -3.4438   0.1888   0.4399   0.7125   0.7338
     0.7412   0.7472   0.7611   0.7784   0.7966   0.8186   0.8200   0.8218
     0.8254   0.8424   0.8490   0.8822   0.8958   0.9206   0.9495   0.9515
     1.0125   1.1765   1.2522   1.2642   1.2864   1.3017   1.3150   1.3282
     1.3288   1.3318   1.3498   1.3500   1.4021   1.4390   1.4393   1.4409
     1.4505   1.4532   1.4796   1.8878   2.1056   2.1065   2.1157   2.1288
     2.1355   2.1500   2.1953   2.3370   2.3562

     highest occupied, lowest unoccupied level (ev):    -4.2456   -3.5478

!    total energy              =   -1940.22701666 Ry
     Harris-Foulkes estimate   =   -1940.22701666 Ry
     estimated scf accuracy    <          2.8E-13 Ry

     total all-electron energy =     -7770.051493 Ry

     The total energy is the sum of the following terms:

     one-electron contribution =  -10647.10521243 Ry
     hartree contribution      =    5409.27742046 Ry
     xc contribution           =    -430.70646152 Ry
     ewald contribution        =    4371.75361856 Ry
     DFT-D3 Dispersion         =      -0.27018276 Ry
     one-center paw contrib.   =    -643.17619899 Ry

     total magnetization       =     1.00 Bohr mag/cell
     absolute magnetization    =     1.21 Bohr mag/cell

     convergence has been achieved in  31 iterations

     negative rho (up, down):  4.822E-01 8.719E-03

     Forces acting on atoms (cartesian axes, Ry/au):

     atom    1 type  1   force =    -0.00000195    0.00000192    0.00000000
     atom    2 type  1   force =     0.00000566    0.00000483    0.00000000
     atom    3 type  1   force =     0.00000568    0.00000600    0.00000000
     atom    4 type  1   force =    -0.00000094   -0.00000238    0.00000000
     atom    5 type  1   force =    -0.00000562   -0.00000181    0.00000000
     atom    6 type  1   force =    -0.00001357    0.00000517    0.00000000
     atom    7 type  1   force =    -0.00001451    0.00000795    0.00000000
     atom    8 type  1   force =    -0.00000945    0.00000453    0.00000000
     atom    9 type  1   force =     0.00000249    0.00000726    0.00000000
     atom   10 type  1   force =     0.00001118    0.00001010    0.00000000
     atom   11 type  1   force =     0.00000493    0.00000951    0.00000000
     atom   12 type  1   force =    -0.00000388    0.00000204    0.00000000
     atom   13 type  1   force =    -0.00000418    0.00000333    0.00000000
     atom   14 type  1   force =    -0.00001083    0.00000936    0.00000000
     atom   15 type  1   force =    -0.00000301    0.00000583    0.00000000
     atom   16 type  1   force =     0.00000047    0.00000088    0.00000000
     atom   17 type  1   force =     0.00001248    0.00000127    0.00000000
     atom   18 type  1   force =     0.00000964    0.00000848    0.00000000
     atom   19 type  1   force =    -0.00000179    0.00000312    0.00000000
     atom   20 type  1   force =    -0.00000024    0.00000252    0.00000000
     atom   21 type  1   force =     0.00000008    0.00000646    0.00000000
     atom   22 type  1   force =     0.00000177    0.00000320    0.00000000
     atom   23 type  1   force =     0.00000285   -0.00000122    0.00000000
     atom   24 type  1   force =     0.00000836   -0.00000237    0.00000000
     atom   25 type  4   force =    -0.00000353   -0.00002993    0.00000000
     atom   26 type  1   force =     0.00000942   -0.00001534    0.00000000
     atom   27 type  1   force =    -0.00000155   -0.00000974    0.00000000
     atom   28 type  1   force =     0.00000369    0.00000113    0.00000000
     atom   29 type  1   force =    -0.00000306   -0.00000144    0.00000000
     atom   30 type  1   force =    -0.00000106   -0.00000101    0.00000000
     atom   31 type  1   force =     0.00000405   -0.00000371    0.00000000
     atom   32 type  1   force =     0.00000738   -0.00000477    0.00000000
     atom   33 type  1   force =    -0.00000528   -0.00001627    0.00000000
     atom   34 type  1   force =    -0.00000246   -0.00001876    0.00000000
     atom   35 type  1   force =    -0.00000104   -0.00001034    0.00000000
     atom   36 type  1   force =    -0.00000194   -0.00000449    0.00000000
     atom   37 type  1   force =    -0.00000229    0.00000015    0.00000000
     atom   38 type  1   force =    -0.00000061   -0.00000007    0.00000000
     atom   39 type  1   force =     0.00000217   -0.00000013    0.00000000
     atom   40 type  1   force =    -0.00000535   -0.00000252    0.00000000
     atom   41 type  1   force =    -0.00000772   -0.00000948    0.00000000
     atom   42 type  1   force =    -0.00000272   -0.00001031    0.00000000
     atom   43 type  1   force =     0.00000402   -0.00000358    0.00000000
     atom   44 type  1   force =     0.00000192    0.00000268    0.00000000
     atom   45 type  1   force =    -0.00000118    0.00000266    0.00000000
     atom   46 type  1   force =    -0.00000277   -0.00000284    0.00000000
     atom   47 type  1   force =    -0.00000784   -0.00000009    0.00000000
     atom   48 type  1   force =    -0.00001176    0.00000424    0.00000000
     atom   49 type  1   force =    -0.00000506   -0.00000155    0.00000000
     atom   50 type  2   force =     0.00000015    0.00000459    0.00000000
     atom   51 type  2   force =     0.00000151    0.00001617    0.00000000
     atom   52 type  2   force =     0.00001457    0.00000585    0.00000000
     atom   53 type  2   force =     0.00000975   -0.00000487    0.00000000
     atom   54 type  2   force =    -0.00001070    0.00000461    0.00000000
     atom   55 type  2   force =    -0.00001267    0.00001020    0.00000000
     atom   56 type  2   force =    -0.00000118    0.00000131    0.00000000
     atom   57 type  2   force =    -0.00000283    0.00000169    0.00000000
     atom   58 type  2   force =    -0.00000134    0.00000869    0.00000000
     atom   59 type  2   force =     0.00000925    0.00001367    0.00000000
     atom   60 type  2   force =     0.00001847    0.00000274    0.00000000
     atom   61 type  2   force =     0.00000441   -0.00000260    0.00000000
     atom   62 type  2   force =    -0.00001604    0.00000906    0.00000000
     atom   63 type  2   force =    -0.00001502    0.00000647    0.00000000
     atom   64 type  2   force =    -0.00000923    0.00000152    0.00000000
     atom   65 type  2   force =    -0.00000353    0.00000194    0.00000000
     atom   66 type  2   force =    -0.00000189    0.00000862    0.00000000
     atom   67 type  3   force =     0.00002205    0.00001218    0.00000000
     atom   68 type  2   force =     0.00001310   -0.00001462    0.00000000
     atom   69 type  2   force =     0.00000070   -0.00000251    0.00000000
     atom   70 type  2   force =    -0.00001031    0.00000821    0.00000000
     atom   71 type  2   force =    -0.00000042    0.00000414    0.00000000
     atom   72 type  2   force =     0.00000541    0.00000082    0.00000000
     atom   73 type  2   force =     0.00000446   -0.00000252    0.00000000
     atom   74 type  2   force =     0.00000023    0.00000126    0.00000000
     atom   75 type  5   force =     0.00000310    0.00001028    0.00000000
     atom   76 type  2   force =     0.00000649   -0.00001431    0.00000000
     atom   77 type  2   force =     0.00000785   -0.00000367    0.00000000
     atom   78 type  2   force =     0.00000738   -0.00000025    0.00000000
     atom   79 type  2   force =     0.00000912   -0.00000079    0.00000000
     atom   80 type  2   force =     0.00000746   -0.00000443    0.00000000
     atom   81 type  2   force =     0.00000310   -0.00000262    0.00000000
     atom   82 type  2   force =    -0.00000030   -0.00000555    0.00000000
     atom   83 type  2   force =    -0.00000618   -0.00001156    0.00000000
     atom   84 type  2   force =     0.00000241   -0.00001123    0.00000000
     atom   85 type  2   force =    -0.00000281   -0.00000107    0.00000000
     atom   86 type  2   force =     0.00000415   -0.00000211    0.00000000
     atom   87 type  2   force =     0.00000500   -0.00000701    0.00000000
     atom   88 type  2   force =     0.00000215   -0.00000565    0.00000000
     atom   89 type  2   force =    -0.00000097    0.00000002    0.00000000
     atom   90 type  2   force =    -0.00000394   -0.00000093    0.00000000
     atom   91 type  2   force =    -0.00001131   -0.00000611    0.00000000
     atom   92 type  2   force =    -0.00000635    0.00000459    0.00000000
     atom   93 type  2   force =     0.00000072    0.00000422    0.00000000
     atom   94 type  2   force =     0.00000497   -0.00000528    0.00000000
     atom   95 type  2   force =    -0.00000323   -0.00000183    0.00000000
     atom   96 type  2   force =    -0.00000556    0.00000678    0.00000000
     atom   97 type  2   force =    -0.00000087    0.00000224    0.00000000
     atom   98 type  2   force =    -0.00000229   -0.00000082    0.00000000

     Total force =     0.000101     Total SCF correction =     0.000001


     Computing stress (Cartesian axis) and pressure


     negative rho (up, down):  4.822E-01 8.719E-03
          total   stress  (Ry/bohr**3)                   (kbar)     P=   -0.16
  -0.00000000  -0.00000000   0.00000000         -0.00     -0.00      0.00
  -0.00000000  -0.00000000   0.00000000         -0.00     -0.00      0.00
   0.00000000   0.00000000  -0.00000334          0.00      0.00     -0.49


     BFGS Geometry Optimization

     number of scf cycles    =   1
     number of bfgs steps    =   0

     enthalpy new            =   -1940.2270166622 Ry

     new trust radius        =       0.0000301405 bohr
     new conv_thr            =            1.0E-12 Ry

     new unit-cell volume =  36225.94053 a.u.^3 (  5368.13047 Ang^3 )
     density =      0.36316 g/cm^3

CELL_PARAMETERS (alat= 33.23461096)
   1.001327578  -0.000545337   0.000000000
  -0.501136061   0.866902414   0.000000000
   0.000000000   0.000000000   1.137203616

ATOMIC_POSITIONS (crystal)
B        0.047370155   0.094774495   0.500000000
B        0.047562063   0.237850747   0.500000000
B        0.047477037   0.381063064   0.500000000
B        0.047185682   0.523844584   0.500000000
B        0.047455997   0.666695877   0.500000000
B        0.047766296   0.809662488   0.500000000
B        0.047658641   0.952341262   0.500000000
B        0.190064671   0.094519694   0.500000000
B        0.189528108   0.236866850   0.500000000
B        0.190409094   0.380788552   0.500000000
B        0.189489483   0.524310903   0.500000000
B        0.189458209   0.667033143   0.500000000
B        0.190229549   0.809770097   0.500000000
B        0.190337294   0.952233464   0.500000000
B        0.333361523   0.094595553   0.500000000
B        0.333039056   0.236311256   0.500000000
B        0.331782807   0.377246175   0.500000000
B        0.332579969   0.526923532   0.500000000
B        0.331611020   0.668388742   0.500000000
B        0.332966501   0.810541492   0.500000000
B        0.333303863   0.952543803   0.500000000
B        0.476323462   0.095158373   0.500000000
B        0.476434013   0.237858808   0.500000000
B        0.476519242   0.380812774   0.500000000
C2       0.477770427   0.522228871   0.500000000
B        0.473076495   0.667420004   0.500000000
B        0.475688858   0.810510432   0.500000000
B        0.476155227   0.952814267   0.500000000
B        0.619009634   0.095163304   0.500000000
B        0.619229352   0.237933103   0.500000000
B        0.619317647   0.380682560   0.500000000
B        0.619187431   0.523481040   0.500000000
B        0.622753643   0.668217411   0.500000000
B        0.619211276   0.809591012   0.500000000
B        0.618936775   0.952523042   0.500000000
B        0.761915791   0.095150002   0.500000000
B        0.761967674   0.238032513   0.500000000
B        0.762067147   0.380770844   0.500000000
B        0.762141337   0.523566192   0.500000000
B        0.763688626   0.666961105   0.500000000
B        0.763133035   0.810472023   0.500000000
B        0.762149149   0.952438037   0.500000000
B        0.904885103   0.095114939   0.500000000
B        0.904850135   0.238084237   0.500000000
B        0.904836863   0.380990389   0.500000000
B        0.904841681   0.523676536   0.500000000
B        0.905404319   0.666638439   0.500000000
B        0.905480134   0.809935320   0.500000000
B        0.905225447   0.952629886   0.500000000
N        0.095031223   0.047333762   0.500000000
N        0.094645767   0.189798234   0.500000000
N        0.095346883   0.333407885   0.500000000
N        0.094610902   0.476195309   0.500000000
N        0.094548495   0.619006208   0.500000000
N        0.095084555   0.761984701   0.500000000
N        0.095213807   0.904785998   0.500000000
N        0.238001983   0.047312849   0.500000000
N        0.237653203   0.189610244   0.500000000
N        0.236942308   0.331802346   0.500000000
N        0.237738888   0.476901313   0.500000000
N        0.236411289   0.619462307   0.500000000
N        0.237630866   0.762368720   0.500000000
N        0.238014988   0.904915129   0.500000000
N        0.381123874   0.047486935   0.500000000
N        0.381074488   0.189485968   0.500000000
N        0.380437149   0.331031954   0.500000000
C1       0.384280053   0.477209734   0.500000000
N        0.378181684   0.621817968   0.500000000
N        0.380537283   0.763588458   0.500000000
N        0.380993487   0.905451306   0.500000000
N        0.523938504   0.047803012   0.500000000
N        0.524024631   0.190395325   0.500000000
N        0.524121166   0.333269439   0.500000000
N        0.524176872   0.475823385   0.500000000
C3       0.522790697   0.615720833   0.500000000
N        0.523098520   0.762261210   0.500000000
N        0.523804471   0.905389120   0.500000000
N        0.666672585   0.047592616   0.500000000
N        0.666773701   0.190334667   0.500000000
N        0.666899775   0.333100506   0.500000000
N        0.666730722   0.475879084   0.500000000
N        0.668968176   0.619563063   0.500000000
N        0.668197668   0.763058028   0.500000000
N        0.666592061   0.904653376   0.500000000
N        0.809594898   0.047587944   0.500000000
N        0.809590576   0.190409598   0.500000000
N        0.809665574   0.333226492   0.500000000
N        0.809604824   0.475975526   0.500000000
N        0.810514014   0.618925604   0.500000000
N        0.810389770   0.762346993   0.500000000
N        0.810201821   0.905354475   0.500000000
N        0.952425825   0.047574283   0.500000000
N        0.952412249   0.190405182   0.500000000
N        0.952407576   0.333327433   0.500000000
N        0.952197051   0.476061454   0.500000000
N        0.952512949   0.618876030   0.500000000
N        0.952686999   0.761997948   0.500000000
N        0.952666208   0.904968816   0.500000000



     Writing output data file C2Cn.save/
     NEW-OLD atomic charge density approx. for the potential
     NEW k-points:
   0.0000000   0.0000000   0.0000000   1.0000000
   0.0000000   0.0000000   0.0000000   1.0000000

     Check: negative core charge=   -0.000006

     negative rho (up, down):  4.822E-01 4.371E-03

     total cpu time spent up to now is     1005.4 secs

     Self-consistent Calculation

     iteration #  1     ecut=    40.00 Ry     beta= 0.70
     CG style diagonalization
     ethr =  1.00E-06,  avg # of iterations =  2.0

     Threshold (ethr) on eigenvalues was too large:
     Diagonalizing with lowered threshold

     CG style diagonalization
     ethr =  2.76E-12,  avg # of iterations = 10.2

     negative rho (up, down):  4.822E-01 8.028E-03

     total cpu time spent up to now is     1134.2 secs

     total energy              =   -1940.22701803 Ry
     Harris-Foulkes estimate   =   -1940.22701719 Ry
     estimated scf accuracy    <       0.00000001 Ry

     total magnetization       =     1.00 Bohr mag/cell
     absolute magnetization    =     1.21 Bohr mag/cell

     iteration #  2     ecut=    40.00 Ry     beta= 0.70
     CG style diagonalization
     ethr =  3.82E-12,  avg # of iterations =  3.7

     negative rho (up, down):  4.822E-01 8.160E-03

     total cpu time spent up to now is     1166.9 secs

     total energy              =   -1940.22701781 Ry
     Harris-Foulkes estimate   =   -1940.22701805 Ry
     estimated scf accuracy    <       0.00000004 Ry

     total magnetization       =     1.00 Bohr mag/cell
     absolute magnetization    =     1.21 Bohr mag/cell

     iteration #  3     ecut=    40.00 Ry     beta= 0.70
     CG style diagonalization
     ethr =  3.82E-12,  avg # of iterations =  3.3

     negative rho (up, down):  4.822E-01 8.527E-03

     total cpu time spent up to now is     1195.3 secs

     total energy              =   -1940.22701716 Ry
     Harris-Foulkes estimate   =   -1940.22701782 Ry
     estimated scf accuracy    <       0.00000002 Ry

     total magnetization       =     1.00 Bohr mag/cell
     absolute magnetization    =     1.21 Bohr mag/cell

     iteration #  4     ecut=    40.00 Ry     beta= 0.70
     CG style diagonalization
     ethr =  3.82E-12,  avg # of iterations =  3.2

     negative rho (up, down):  4.822E-01 8.679E-03

     total cpu time spent up to now is     1222.4 secs

     total energy              =   -1940.22701679 Ry
     Harris-Foulkes estimate   =   -1940.22701716 Ry
     estimated scf accuracy    <          1.4E-09 Ry

     total magnetization       =     1.00 Bohr mag/cell
     absolute magnetization    =     1.21 Bohr mag/cell

     iteration #  5     ecut=    40.00 Ry     beta= 0.70
     CG style diagonalization
     ethr =  3.49E-13,  avg # of iterations =  3.4

     negative rho (up, down):  4.822E-01 8.712E-03

     total cpu time spent up to now is     1251.7 secs

     total energy              =   -1940.22701671 Ry
     Harris-Foulkes estimate   =   -1940.22701679 Ry
     estimated scf accuracy    <          2.4E-10 Ry

     total magnetization       =     1.00 Bohr mag/cell
     absolute magnetization    =     1.21 Bohr mag/cell

     iteration #  6     ecut=    40.00 Ry     beta= 0.70
     CG style diagonalization
     ethr =  1.00E-13,  avg # of iterations =  3.3

     negative rho (up, down):  4.822E-01 8.718E-03

     total cpu time spent up to now is     1280.1 secs

     total energy              =   -1940.22701669 Ry
     Harris-Foulkes estimate   =   -1940.22701671 Ry
     estimated scf accuracy    <          2.3E-11 Ry

     total magnetization       =     1.00 Bohr mag/cell
     absolute magnetization    =     1.21 Bohr mag/cell

     iteration #  7     ecut=    40.00 Ry     beta= 0.70
     CG style diagonalization
     ethr =  1.00E-13,  avg # of iterations =  3.0

     negative rho (up, down):  4.822E-01 8.719E-03

     total cpu time spent up to now is     1305.3 secs

     total energy              =   -1940.22701667 Ry
     Harris-Foulkes estimate   =   -1940.22701669 Ry
     estimated scf accuracy    <          6.6E-12 Ry

     total magnetization       =     1.00 Bohr mag/cell
     absolute magnetization    =     1.21 Bohr mag/cell

     iteration #  8     ecut=    40.00 Ry     beta= 0.70
     CG style diagonalization
     ethr =  1.00E-13,  avg # of iterations =  3.1

     negative rho (up, down):  4.822E-01 8.721E-03

     total cpu time spent up to now is     1332.8 secs

     total energy              =   -1940.22701667 Ry
     Harris-Foulkes estimate   =   -1940.22701667 Ry
     estimated scf accuracy    <          1.5E-12 Ry

     total magnetization       =     1.00 Bohr mag/cell
     absolute magnetization    =     1.21 Bohr mag/cell

     iteration #  9     ecut=    40.00 Ry     beta= 0.70
     CG style diagonalization
     ethr =  1.00E-13,  avg # of iterations =  3.1

     negative rho (up, down):  4.822E-01 8.718E-03
 
     Magnetic moment per site:
     atom:    1    charge:    0.8307    magn:    0.0001    constr:    0.0000
     atom:    2    charge:    0.8260    magn:    0.0013    constr:    0.0000
     atom:    3    charge:    0.8268    magn:    0.0008    constr:    0.0000
     atom:    4    charge:    0.8297    magn:    0.0000    constr:    0.0000
     atom:    5    charge:    0.8321    magn:    0.0008    constr:    0.0000
     atom:    6    charge:    0.8302    magn:   -0.0001    constr:    0.0000
     atom:    7    charge:    0.8311    magn:    0.0008    constr:    0.0000
     atom:    8    charge:    0.8286    magn:    0.0007    constr:    0.0000
     atom:    9    charge:    0.8313    magn:    0.0009    constr:    0.0000
     atom:   10    charge:    0.8215    magn:    0.0064    constr:    0.0000
     atom:   11    charge:    0.8258    magn:    0.0004    constr:    0.0000
     atom:   12    charge:    0.8343    magn:    0.0009    constr:    0.0000
     atom:   13    charge:    0.8324    magn:   -0.0001    constr:    0.0000
     atom:   14    charge:    0.8302    magn:   -0.0001    constr:    0.0000
     atom:   15    charge:    0.8296    magn:    0.0006    constr:    0.0000
     atom:   16    charge:    0.8327    magn:    0.0046    constr:    0.0000
     atom:   17    charge:    0.8409    magn:    0.0153    constr:    0.0000
     atom:   18    charge:    0.8289    magn:    0.0132    constr:    0.0000
     atom:   19    charge:    0.8441    magn:    0.0072    constr:    0.0000
     atom:   20    charge:    0.8343    magn:    0.0009    constr:    0.0000
     atom:   21    charge:    0.8321    magn:    0.0008    constr:    0.0000
     atom:   22    charge:    0.8278    magn:    0.0001    constr:    0.0000
     atom:   23    charge:    0.8243    magn:    0.0003    constr:    0.0000
     atom:   24    charge:    0.8255    magn:    0.0079    constr:    0.0000
     atom:   25    charge:    1.6765    magn:    0.1736    constr:    0.0000
     atom:   26    charge:    0.8289    magn:    0.0132    constr:    0.0000
     atom:   27    charge:    0.8258    magn:    0.0004    constr:    0.0000
     atom:   28    charge:    0.8297    magn:    0.0000    constr:    0.0000
     atom:   29    charge:    0.8273    magn:    0.0006    constr:    0.0000
     atom:   30    charge:    0.8286    magn:    0.0004    constr:    0.0000
     atom:   31    charge:    0.8292    magn:    0.0026    constr:    0.0000
     atom:   32    charge:    0.8255    magn:    0.0079    constr:    0.0000
     atom:   33    charge:    0.8409    magn:    0.0153    constr:    0.0000
     atom:   34    charge:    0.8215    magn:    0.0064    constr:    0.0000
     atom:   35    charge:    0.8268    magn:    0.0008    constr:    0.0000
     atom:   36    charge:    0.8252    magn:   -0.0000    constr:    0.0000
     atom:   37    charge:    0.8258    magn:    0.0000    constr:    0.0000
     atom:   38    charge:    0.8286    magn:    0.0004    constr:    0.0000
     atom:   39    charge:    0.8243    magn:    0.0003    constr:    0.0000
     atom:   40    charge:    0.8327    magn:    0.0046    constr:    0.0000
     atom:   41    charge:    0.8313    magn:    0.0009    constr:    0.0000
     atom:   42    charge:    0.8260    magn:    0.0013    constr:    0.0000
     atom:   43    charge:    0.8251    magn:    0.0011    constr:    0.0000
     atom:   44    charge:    0.8252    magn:   -0.0000    constr:    0.0000
     atom:   45    charge:    0.8273    magn:    0.0006    constr:    0.0000
     atom:   46    charge:    0.8278    magn:    0.0001    constr:    0.0000
     atom:   47    charge:    0.8296    magn:    0.0006    constr:    0.0000
     atom:   48    charge:    0.8286    magn:    0.0007    constr:    0.0000
     atom:   49    charge:    0.8307    magn:    0.0001    constr:    0.0000
     atom:   50    charge:    2.7503    magn:   -0.0004    constr:    0.0000
     atom:   51    charge:    2.7482    magn:   -0.0005    constr:    0.0000
     atom:   52    charge:    2.7404    magn:   -0.0019    constr:    0.0000
[...]
     atom:   55    charge:    2.7463    magn:    0.0004    constr:    0.0000
     atom:   56    charge:    2.7458    magn:    0.0002    constr:    0.0000
     atom:   57    charge:    2.7463    magn:    0.0017    constr:    0.0000
     atom:   58    charge:    2.7460    magn:    0.0006    constr:    0.0000
     atom:   59    charge:    2.7421    magn:   -0.0033    constr:    0.0000
     atom:   60    charge:    2.7343    magn:   -0.0044    constr:    0.0000
     atom:   61    charge:    2.7503    magn:    0.0010    constr:    0.0000
     atom:   62    charge:    2.7462    magn:    0.0020    constr:    0.0000
     atom:   63    charge:    2.7463    magn:    0.0004    constr:    0.0000
     atom:   64    charge:    2.7519    magn:   -0.0003    constr:    0.0000
     atom:   65    charge:    2.7514    magn:    0.0012    constr:    0.0000
     atom:   66    charge:    2.7428    magn:    0.0063    constr:    0.0000
     atom:   67    charge:    1.6722    magn:   -0.0031    constr:    0.0000
     atom:   68    charge:    2.7606    magn:    0.0097    constr:    0.0000
     atom:   69    charge:    2.7503    magn:    0.0010    constr:    0.0000
     atom:   70    charge:    2.7498    magn:   -0.0004    constr:    0.0000
     atom:   71    charge:    2.7501    magn:   -0.0001    constr:    0.0000
     atom:   72    charge:    2.7456    magn:   -0.0003    constr:    0.0000
     atom:   73    charge:    2.7424    magn:   -0.0019    constr:    0.0000
     atom:   74    charge:    2.7324    magn:   -0.0021    constr:    0.0000
     atom:   75    charge:    1.6721    magn:   -0.0031    constr:    0.0000
     atom:   76    charge:    2.7343    magn:   -0.0044    constr:    0.0000
     atom:   77    charge:    2.7496    magn:   -0.0003    constr:    0.0000
     atom:   78    charge:    2.7485    magn:   -0.0003    constr:    0.0000
     atom:   79    charge:    2.7470    magn:   -0.0002    constr:    0.0000
     atom:   80    charge:    2.7454    magn:   -0.0003    constr:    0.0000
     atom:   81    charge:    2.7424    magn:   -0.0019    constr:    0.0000
     atom:   82    charge:    2.7428    magn:    0.0063    constr:    0.0000
     atom:   83    charge:    2.7421    magn:   -0.0033    constr:    0.0000
     atom:   84    charge:    2.7404    magn:   -0.0019    constr:    0.0000
     atom:   85    charge:    2.7459    magn:   -0.0005    constr:    0.0000
     atom:   86    charge:    2.7467    magn:    0.0001    constr:    0.0000
     atom:   87    charge:    2.7470    magn:   -0.0002    constr:    0.0000
     atom:   88    charge:    2.7456    magn:   -0.0003    constr:    0.0000
     atom:   89    charge:    2.7514    magn:    0.0012    constr:    0.0000
     atom:   90    charge:    2.7460    magn:    0.0006    constr:    0.0000
     atom:   91    charge:    2.7482    magn:   -0.0005    constr:    0.0000
     atom:   92    charge:    2.7516    magn:   -0.0002    constr:    0.0000
     atom:   93    charge:    2.7459    magn:   -0.0005    constr:    0.0000
     atom:   94    charge:    2.7485    magn:   -0.0003    constr:    0.0000
     atom:   95    charge:    2.7501    magn:   -0.0001    constr:    0.0000
     atom:   96    charge:    2.7519    magn:   -0.0003    constr:    0.0000
     atom:   97    charge:    2.7463    magn:    0.0017    constr:    0.0000
     atom:   98    charge:    2.7503    magn:   -0.0004    constr:    0.0000

     total cpu time spent up to now is     4052.8 secs

     End of self-consistent calculation

 ------ SPIN UP ------------


          k = 0.0000 0.0000 0.0000 ( 77440 PWs)   bands (ev):

   -21.7343 -21.4757 -21.3702 -21.3675 -21.3500 -21.3195 -21.2308 -20.7962
   -20.6346 -20.6304 -20.6116 -20.5371 -20.5187 -20.3919 -20.2770 -20.2744
   -20.2543 -20.1342 -20.0879 -19.5386 -19.3825 -19.3768 -19.3753 -19.3644
   -19.3624 -19.3551 -19.3546 -19.3378 -19.3048 -19.1490 -19.1454 -19.0130
   -18.9629 -18.9549 -18.9320 -18.7646 -18.7493 -18.5252 -18.5228 -18.5154
   -18.5004 -18.4376 -18.4337 -18.3773 -18.3608 -18.3255 -18.3199 -17.0160
   -15.0903 -13.0984 -12.7506 -12.7491 -12.7387 -12.7059 -12.6949 -12.6443
   -12.5430 -12.5143 -12.5139 -12.4742 -12.4134 -12.1299 -12.0565 -12.0411
   -12.0236 -11.9656 -11.9517 -11.5209 -11.4019 -11.3928 -11.3720 -11.3671
   -11.3631 -11.3561 -11.3546 -11.3100 -11.2877 -11.1011 -11.0649 -10.8553
   -10.7063 -10.6959 -10.6734 -10.6617 -10.5195 -10.0512 -10.0329  -9.9868
    -9.9210  -9.8658  -9.8210  -9.3676  -9.3251  -9.3050  -9.2807  -9.2652
    -9.2611  -9.2228  -9.0226  -8.9158  -8.9145  -8.8857  -8.8842  -8.8804
    -8.8711  -8.8505  -8.8395  -8.8388  -8.8255  -8.8135  -8.8069  -8.8039
    -8.8031  -8.8016  -8.7864  -8.7747  -8.7257  -8.7029  -8.6715  -8.6550
    -8.4696  -8.4653  -8.1849  -8.1847  -8.1640  -8.1303  -8.0782  -7.8929
    -7.8884  -7.8098  -7.8054  -7.7907  -7.7253  -7.7163  -7.5341  -7.4888
    -7.4853  -7.4436  -7.4263  -7.4248  -7.4159  -7.4027  -7.3833  -7.3395
    -7.3284  -7.3242  -7.3076  -7.3021  -7.2322  -7.2224  -7.2045  -7.0520
    -7.0134  -6.9984  -6.9541  -6.8215  -6.6684  -6.5664  -6.2118  -6.1713
    -6.1629  -6.1358  -6.1255  -6.0523  -6.0482  -6.0467  -6.0351  -6.0341
    -6.0303  -6.0255  -6.0192  -5.9909  -5.8691  -5.8469  -5.8079  -5.7265
    -5.5089  -5.4397  -5.4347  -5.4186  -5.3475  -5.2505  -5.2033  -5.1640
    -4.7725  -4.7668  -4.7491  -4.7482  -4.6814  -4.6400  -4.5433  -4.5165
    -4.4797  -4.4739  -4.3268  -3.5478  -0.0958   0.1802   0.7045   0.7081
     0.7208   0.7213   0.7314   0.7432   0.7981   0.8000   0.8174   0.8190
     0.8191   0.8323   0.8410   0.8615   0.8698   0.8791   0.9068   0.9364
     0.9366   1.1273   1.2139   1.2216   1.2398   1.2661   1.2946   1.3284
     1.3288   1.3311   1.3415   1.3445   1.3752   1.4404   1.4409   1.4422
     1.4507   1.4539   1.4730   1.8828   2.0978   2.1017   2.1038   2.1090
     2.1154   2.1161   2.1320   2.2078   2.3073

 ------ SPIN DOWN ----------


          k = 0.0000 0.0000 0.0000 ( 77440 PWs)   bands (ev):

   -21.7254 -21.4387 -21.3684 -21.3663 -21.3480 -21.3149 -21.2093 -20.7689
   -20.6335 -20.6269 -20.6071 -20.5343 -20.5123 -20.3839 -20.2736 -20.2712
   -20.2500 -20.1296 -20.0704 -19.5225 -19.3814 -19.3748 -19.3745 -19.3630
   -19.3605 -19.3548 -19.3530 -19.3336 -19.2984 -19.1466 -19.1399 -19.0089
   -18.9624 -18.9530 -18.9284 -18.7621 -18.7409 -18.5246 -18.5198 -18.5142
   -18.4980 -18.4361 -18.4329 -18.3758 -18.3607 -18.3241 -18.3177 -16.8931
   -15.0338 -13.0092 -12.7452 -12.7451 -12.7335 -12.7021 -12.6914 -12.6367
   -12.5393 -12.5084 -12.5080 -12.4627 -12.3988 -12.1181 -12.0516 -12.0353
   -12.0206 -11.9587 -11.9421 -11.4976 -11.3869 -11.3847 -11.3692 -11.3649
   -11.3603 -11.3525 -11.3521 -11.3002 -11.2762 -11.0923 -11.0457 -10.8369
   -10.7019 -10.6924 -10.6635 -10.6563 -10.5038 -10.0422 -10.0243  -9.9801
    -9.9110  -9.8584  -9.8105  -9.3590  -9.3133  -9.2844  -9.2761  -9.2605
    -9.2579  -9.2203  -9.0097  -8.9091  -8.9026  -8.8847  -8.8819  -8.8762
    -8.8686  -8.8460  -8.8357  -8.8230  -8.8106  -8.8052  -8.7994  -8.7991
    -8.7983  -8.7947  -8.7708  -8.7549  -8.7182  -8.6592  -8.6427  -8.6175
    -8.4614  -8.4542  -8.1845  -8.1829  -8.1630  -8.1183  -8.0698  -7.8874
    -7.8141  -7.8014  -7.7953  -7.7737  -7.7087  -7.6781  -7.5245  -7.4841
    -7.4815  -7.4406  -7.4247  -7.4234  -7.3997  -7.3814  -7.3637  -7.3374
    -7.3153  -7.3124  -7.3003  -7.2909  -7.1982  -7.1931  -7.1676  -7.0409
    -7.0109  -6.9967  -6.9413  -6.8075  -6.6629  -6.5589  -6.1678  -6.1619
    -6.1344  -6.1160  -6.1134  -6.0469  -6.0423  -6.0403  -6.0282  -6.0253
    -6.0198  -6.0198  -6.0046  -5.9651  -5.8416  -5.8213  -5.7871  -5.7186
    -5.4760  -5.4339  -5.4232  -5.4068  -5.3106  -5.2317  -5.1918  -5.1416
    -4.7621  -4.7529  -4.7421  -4.7413  -4.6677  -4.6347  -4.5281  -4.5109
    -4.4751  -4.4683  -4.2456  -3.4438   0.1888   0.4399   0.7125   0.7338
     0.7412   0.7471   0.7611   0.7784   0.7966   0.8186   0.8200   0.8218
     0.8253   0.8424   0.8490   0.8822   0.8958   0.9206   0.9495   0.9515
     1.0125   1.1765   1.2522   1.2642   1.2864   1.3016   1.3150   1.3282
     1.3288   1.3318   1.3498   1.3500   1.4021   1.4390   1.4393   1.4409
     1.4505   1.4532   1.4796   1.8877   2.1059   2.1075   2.1159   2.1295
     2.3233   2.3342   2.3382   2.3562   2.3824

     highest occupied, lowest unoccupied level (ev):    -4.2456   -3.5478

!    total energy              =   -1940.22701667 Ry
     Harris-Foulkes estimate   =   -1940.22701668 Ry
     estimated scf accuracy    <          9.5E-15 Ry

     total all-electron energy =     -7770.051493 Ry

     The total energy is the sum of the following terms:

     one-electron contribution =  -10647.10690547 Ry
     hartree contribution      =    5409.27827223 Ry
     xc contribution           =    -430.70647623 Ry
     ewald contribution        =    4371.75447604 Ry
     DFT-D3 Dispersion         =      -0.27018279 Ry
     one-center paw contrib.   =    -643.17620046 Ry

     total magnetization       =     1.00 Bohr mag/cell
     absolute magnetization    =     1.21 Bohr mag/cell

     convergence has been achieved in  35 iterations

     negative rho (up, down):  4.822E-01 8.720E-03

     Forces acting on atoms (cartesian axes, Ry/au):

     atom    1 type  1   force =    -0.00000217    0.00000990    0.00000000
     atom    2 type  1   force =    -0.00000032    0.00000767    0.00000000
     atom    3 type  1   force =     0.00000672   -0.00000441    0.00000000
     atom    4 type  1   force =     0.00000232   -0.00000068    0.00000000
     atom    5 type  1   force =    -0.00000725    0.00000952    0.00000000
     atom    6 type  1   force =    -0.00000461    0.00000620    0.00000000
     atom    7 type  1   force =     0.00000055    0.00000177    0.00000000
     atom    8 type  1   force =    -0.00000028    0.00000723    0.00000000
     atom    9 type  1   force =     0.00000152    0.00001255    0.00000000
     atom   10 type  1   force =     0.00000894    0.00000539    0.00000000
     atom   11 type  1   force =     0.00000910   -0.00000501    0.00000000
     atom   12 type  1   force =    -0.00000422    0.00000284    0.00000000
     atom   13 type  1   force =    -0.00001487    0.00000891    0.00000000
     atom   14 type  1   force =    -0.00000754    0.00000322    0.00000000
     atom   15 type  1   force =    -0.00000640    0.00000109    0.00000000
     atom   16 type  1   force =    -0.00000123    0.00000814    0.00000000
     atom   17 type  1   force =     0.00000379    0.00001329    0.00000000
     atom   18 type  1   force =     0.00001587   -0.00000844    0.00000000
     atom   19 type  1   force =     0.00000904   -0.00000744    0.00000000
     atom   20 type  1   force =    -0.00000861    0.00000349    0.00000000
     atom   21 type  1   force =    -0.00001329    0.00000249    0.00000000
     atom   22 type  1   force =    -0.00000395   -0.00000117    0.00000000
     atom   23 type  1   force =    -0.00000047   -0.00000221    0.00000000
     atom   24 type  1   force =     0.00000339   -0.00000190    0.00000000
     atom   25 type  4   force =     0.00002744    0.00003347    0.00000000
     atom   26 type  1   force =    -0.00000219   -0.00000575    0.00000000
     atom   27 type  1   force =     0.00000398   -0.00000437    0.00000000
     atom   28 type  1   force =    -0.00000127    0.00000045    0.00000000
     atom   29 type  1   force =     0.00000675   -0.00000024    0.00000000
     atom   30 type  1   force =     0.00000705   -0.00000318    0.00000000
     atom   31 type  1   force =     0.00000591   -0.00000207    0.00000000
     atom   32 type  1   force =     0.00000145   -0.00000470    0.00000000
     atom   33 type  1   force =     0.00000771   -0.00000424    0.00000000
     atom   34 type  1   force =     0.00000016   -0.00000572    0.00000000
     atom   35 type  1   force =     0.00000569    0.00000023    0.00000000
     atom   36 type  1   force =     0.00000286    0.00000149    0.00000000
     atom   37 type  1   force =     0.00000812   -0.00000381    0.00000000
     atom   38 type  1   force =     0.00000661   -0.00000428    0.00000000
     atom   39 type  1   force =     0.00000165   -0.00000189    0.00000000
     atom   40 type  1   force =     0.00000015   -0.00000179    0.00000000
     atom   41 type  1   force =    -0.00000553   -0.00000427    0.00000000
     atom   42 type  1   force =    -0.00000434    0.00000089    0.00000000
     atom   43 type  1   force =    -0.00000558    0.00000555    0.00000000
     atom   44 type  1   force =     0.00000209   -0.00000123    0.00000000
     atom   45 type  1   force =     0.00000518   -0.00000553    0.00000000
     atom   46 type  1   force =     0.00000031    0.00000294    0.00000000
     atom   47 type  1   force =    -0.00000175    0.00000468    0.00000000
     atom   48 type  1   force =    -0.00000130   -0.00000073    0.00000000
     atom   49 type  1   force =    -0.00000612    0.00000089    0.00000000
     atom   50 type  2   force =    -0.00000832    0.00000366    0.00000000
     atom   51 type  2   force =     0.00000299   -0.00000120    0.00000000
     atom   52 type  2   force =     0.00000448    0.00000603    0.00000000
     atom   53 type  2   force =     0.00000098    0.00000883    0.00000000
     atom   54 type  2   force =     0.00000106   -0.00000055    0.00000000
     atom   55 type  2   force =    -0.00000516   -0.00000028    0.00000000
     atom   56 type  2   force =    -0.00001407    0.00000772    0.00000000
     atom   57 type  2   force =    -0.00000637    0.00000878    0.00000000
     atom   58 type  2   force =    -0.00000018    0.00000119    0.00000000
     atom   59 type  2   force =     0.00000682    0.00000358    0.00000000
     atom   60 type  2   force =     0.00000236    0.00000820    0.00000000
     atom   61 type  2   force =    -0.00000344    0.00000872    0.00000000
     atom   62 type  2   force =     0.00000358    0.00000016    0.00000000
     atom   63 type  2   force =    -0.00000100    0.00000511    0.00000000
     atom   64 type  2   force =     0.00000212    0.00000538    0.00000000
     atom   65 type  2   force =     0.00000357    0.00000349    0.00000000
     atom   66 type  2   force =     0.00001190   -0.00000494    0.00000000
     atom   67 type  3   force =    -0.00001584   -0.00001539    0.00000000
     atom   68 type  2   force =    -0.00000255    0.00001327    0.00000000
     atom   69 type  2   force =    -0.00000217    0.00000061    0.00000000
     atom   70 type  2   force =     0.00000421   -0.00000108    0.00000000
     atom   71 type  2   force =    -0.00000085   -0.00000365    0.00000000
     atom   72 type  2   force =     0.00000090   -0.00000066    0.00000000
     atom   73 type  2   force =     0.00000494   -0.00000248    0.00000000
     atom   74 type  2   force =     0.00000661   -0.00000771    0.00000000
     atom   75 type  5   force =     0.00000092   -0.00003571    0.00000000
     atom   76 type  2   force =    -0.00000480   -0.00000931    0.00000000
     atom   77 type  2   force =    -0.00000395   -0.00000788    0.00000000
     atom   78 type  2   force =    -0.00000451   -0.00000914    0.00000000
     atom   79 type  2   force =    -0.00000346   -0.00000304    0.00000000
     atom   80 type  2   force =     0.00000087   -0.00000168    0.00000000
     atom   81 type  2   force =     0.00000588   -0.00000474    0.00000000
     atom   82 type  2   force =    -0.00000255   -0.00000441    0.00000000
     atom   83 type  2   force =    -0.00000109   -0.00001252    0.00000000
     atom   84 type  2   force =    -0.00000320   -0.00001318    0.00000000
     atom   85 type  2   force =     0.00000165   -0.00000818    0.00000000
     atom   86 type  2   force =    -0.00000025   -0.00000187    0.00000000
     atom   87 type  2   force =    -0.00000050    0.00000258    0.00000000
     atom   88 type  2   force =    -0.00000037   -0.00000074    0.00000000
     atom   89 type  2   force =    -0.00000501   -0.00000164    0.00000000
     atom   90 type  2   force =    -0.00000688   -0.00000295    0.00000000
     atom   91 type  2   force =    -0.00000094   -0.00000688    0.00000000
     atom   92 type  2   force =     0.00000154   -0.00000364    0.00000000
     atom   93 type  2   force =     0.00000490   -0.00000108    0.00000000
     atom   94 type  2   force =     0.00000227    0.00000641    0.00000000
     atom   95 type  2   force =     0.00000040    0.00000274    0.00000000
     atom   96 type  2   force =    -0.00000489   -0.00000322    0.00000000
     atom   97 type  2   force =    -0.00001362    0.00000131    0.00000000
     atom   98 type  2   force =    -0.00001005    0.00000274    0.00000000

     Total force =     0.000098     Total SCF correction =     0.000000


     Computing stress (Cartesian axis) and pressure


     negative rho (up, down):  4.822E-01 8.720E-03
          total   stress  (Ry/bohr**3)                   (kbar)     P=   -0.16
   0.00000000   0.00000000   0.00000000          0.00      0.00      0.00
   0.00000000  -0.00000000   0.00000000          0.00     -0.00      0.00
   0.00000000   0.00000000  -0.00000334          0.00      0.00     -0.49


     Writing output data file C2Cn.save/
 
     init_run     :      9.61s CPU     10.06s WALL (       2 calls)
     electrons    :   3899.55s CPU   3958.93s WALL (       5 calls)
     update_pot   :     10.22s CPU     10.30s WALL (       3 calls)
     forces       :     19.07s CPU     19.71s WALL (       5 calls)
     stress       :     59.65s CPU     60.28s WALL (       5 calls)

     Called by init_run:
     wfcinit      :      3.67s CPU      3.91s WALL (       2 calls)
     potinit      :      2.05s CPU      2.10s WALL (       2 calls)
     hinit0       :      2.93s CPU      2.98s WALL (       2 calls)

     Called by electrons:
     c_bands      :   3760.73s CPU   3811.62s WALL (     119 calls)
     sum_band     :     72.61s CPU     75.28s WALL (     119 calls)
     v_of_rho     :     23.64s CPU     24.55s WALL (     121 calls)
     newd         :      8.80s CPU     10.34s WALL (     121 calls)
     PAW_pot      :     25.71s CPU     26.06s WALL (     124 calls)
     mix_rho      :      2.34s CPU      2.71s WALL (     119 calls)

     Called by c_bands:
     init_us_2    :      4.33s CPU      4.48s WALL (     506 calls)
     rcgdiagg     :   3625.13s CPU   3660.38s WALL (     249 calls)
     wfcrot       :    134.81s CPU    137.87s WALL (     237 calls)

     Called by sum_band:
     sum_band:bec :      0.16s CPU      0.16s WALL (     244 calls)
     addusdens    :      8.17s CPU      9.91s WALL (     119 calls)

     Called by *cgdiagg:
     h_psi        :   1894.55s CPU   1913.45s WALL (  159984 calls)
     s_psi        :   1055.30s CPU   1065.89s WALL (  319731 calls)
     rdiaghg      :      4.48s CPU      4.64s WALL (     237 calls)

     Called by h_psi:
     h_psi:pot    :   1892.40s CPU   1911.26s WALL (  159984 calls)
     h_psi:calbec :    650.53s CPU    656.82s WALL (  159984 calls)
     vloc_psi     :    683.07s CPU    691.71s WALL (  159984 calls)
     add_vuspsi   :    556.62s CPU    561.07s WALL (  159984 calls)
     hs_1psi      :   2313.99s CPU   2336.29s WALL (  159747 calls)
     s_1psi       :   1082.78s CPU   1092.81s WALL (  159747 calls)

     General routines
     calbec       :   1217.63s CPU   1230.25s WALL (  320025 calls)
     fft          :     19.10s CPU     19.47s WALL (    2221 calls)
     ffts         :      0.88s CPU      0.91s WALL (     238 calls)
     fftw         :    655.84s CPU    664.04s WALL (  407654 calls)
 
     Parallel routines
     fft_scatt_xy :     61.34s CPU     61.93s WALL (  410113 calls)
     fft_scatt_yz :    198.10s CPU    201.12s WALL (  410113 calls)
 
     PWSCF        :      1h 6m CPU      1h 7m WALL

 
   This run was terminated on:  19: 4:43  10Jun2021            

=------------------------------------------------------------------------------=
   JOB DONE.
=------------------------------------------------------------------------------=
