
     Program PWSCF v.6.4.1 starts on 22Sep2021 at  7:32:31 

     This program is part of the open-source Quantum ESPRESSO suite
     for quantum simulation of materials; please cite
         "P. Giannozzi et al., J. Phys.:Condens. Matter 21 395502 (2009);
         "P. Giannozzi et al., J. Phys.:Condens. Matter 29 465901 (2017);
          URL http://www.quantum-espresso.org", 
     in publications or presentations arising from this work. More details at
     http://www.quantum-espresso.org/quote

     Parallel version (MPI), running on   128 processors

     MPI processes distributed on     4 nodes
     R & G space division:  proc/nbgrp/npool/nimage =     128
     Waiting for input...
     Reading input from standard input

     Current dimensions of program PWSCF are:
     Max number of different atomic species (ntypx) = 10
     Max number of k-points (npk) =  40000
     Max angular momentum in pseudopotentials (lmaxx) =  3

     IMPORTANT: XC functional enforced from input :
     Exchange-correlation      = HSE ( 1  4 12  4 0 0)
     EXX-fraction              =        0.25
     Using LIBXC version       =    4   3   4
     Any further DFT definition will be discarded
     Please, verify this is what you really want

               file N.pbe-n-kjpaw_psl.1.0.0.UPF: wavefunction(s)  2S renormalized
               file C.pbe-n-kjpaw_psl.1.0.0.UPF: wavefunction(s)  2S 2P renormalized
               file C.pbe-n-kjpaw_psl.1.0.0.UPF: wavefunction(s)  2S 2P renormalized
               file C.pbe-n-kjpaw_psl.1.0.0.UPF: wavefunction(s)  2S 2P renormalized
     EXX fraction changed:   0.32
     EXX Screening parameter changed:    0.0455000

     --------------------------------------------
     Parameters for DFT-D3 Dispersion Correction:
     --------------------------------------------
       Reference C6 values for interpolation: 

         atom   Coordination number   C6
         B          0.000           214.36
         B          0.971           150.74
         B          1.944           106.23
         B          2.913            62.89
         B          4.586            56.06
         C1         0.000            98.23
         C1         0.987            86.49
         C1         1.998            58.72
         C1         2.999            51.56
         C1         3.984            36.41
         C2         0.000            98.23
         C2         0.987            86.49
         C2         1.998            58.72
         C2         2.999            51.56
         C2         3.984            36.41
         C3         0.000            98.23
         C3         0.987            86.49
         C3         1.998            58.72
         C3         2.999            51.56
         C3         3.984            36.41
         N          0.000            50.54
         N          0.994            44.25
         N          2.014            39.35
         N          2.990            31.16

       Values used:

         atom   Coordination number  R0_AB[au]  C6      C8
         B          3.325            3.039     62.90   2506.24
         B          3.317            3.039     62.90   2506.44
         B          3.317            3.039     62.90   2506.43
         B          3.325            3.039     62.90   2506.25
         B          3.327            3.039     62.90   2506.21
         B          3.324            3.039     62.90   2506.27
         B          3.326            3.039     62.90   2506.22
         B          3.325            3.039     62.90   2506.26
         B          3.323            3.039     62.90   2506.30
         B          3.303            3.039     62.91   2506.76
         B          3.322            3.039     62.90   2506.33
         B          3.329            3.039     62.90   2506.15
         B          3.325            3.039     62.90   2506.24
         B          3.324            3.039     62.90   2506.27
         B          3.325            3.039     62.90   2506.26
         B          3.327            3.039     62.90   2506.21
         B          3.297            3.039     62.91   2506.88
         B          3.297            3.039     62.91   2506.90
         B          3.336            3.039     62.89   2505.99
         B          3.329            3.039     62.90   2506.15
         B          3.327            3.039     62.90   2506.21
         B          3.323            3.039     62.90   2506.31
         B          3.319            3.039     62.90   2506.40
         B          3.314            3.039     62.90   2506.51
         C2         3.249            2.750     49.43   1429.56
         B          3.297            3.039     62.91   2506.90
         B          3.322            3.039     62.90   2506.33
         B          3.325            3.039     62.90   2506.25
         B          3.321            3.039     62.90   2506.36
         B          3.319            3.039     62.90   2506.39
         B          3.315            3.039     62.90   2506.50
         B          3.314            3.039     62.90   2506.51
         B          3.297            3.039     62.91   2506.88
         B          3.303            3.039     62.91   2506.76
         B          3.317            3.039     62.90   2506.43
         B          3.316            3.039     62.90   2506.45
         B          3.318            3.039     62.90   2506.42
         B          3.319            3.039     62.90   2506.39
         B          3.319            3.039     62.90   2506.40
         B          3.327            3.039     62.90   2506.21
         B          3.323            3.039     62.90   2506.30
         B          3.317            3.039     62.90   2506.44
         B          3.319            3.039     62.90   2506.40
         B          3.316            3.039     62.90   2506.45
         B          3.321            3.039     62.90   2506.36
         B          3.323            3.039     62.90   2506.31
         B          3.325            3.039     62.90   2506.26
         B          3.325            3.039     62.90   2506.26
         B          3.325            3.039     62.90   2506.24
         N          3.129            2.478     31.22    688.74
         N          3.128            2.478     31.22    688.75
         N          3.125            2.478     31.22    688.79
         N          3.128            2.478     31.22    688.75
         N          3.130            2.478     31.22    688.73
         N          3.129            2.478     31.22    688.75
         N          3.129            2.478     31.22    688.75
         N          3.129            2.478     31.22    688.75
         N          3.129            2.478     31.22    688.74
         N          3.124            2.478     31.22    688.79
         N          3.123            2.478     31.22    688.80
         N          3.132            2.478     31.22    688.72
         N          3.130            2.478     31.22    688.74
         N          3.129            2.478     31.22    688.75
         N          3.130            2.478     31.22    688.74
         N          3.129            2.478     31.22    688.74
         N          3.132            2.478     31.22    688.71
         C1         3.192            2.750     50.14   1450.24
         N          3.134            2.478     31.22    688.70
         N          3.132            2.478     31.22    688.72
         N          3.130            2.478     31.22    688.73
         N          3.129            2.478     31.22    688.75
         N          3.127            2.478     31.22    688.76
         N          3.126            2.478     31.22    688.78
         N          3.155            2.478     31.21    688.52
         C3         3.192            2.750     50.14   1450.24
         N          3.123            2.478     31.22    688.80
         N          3.128            2.478     31.22    688.75
         N          3.127            2.478     31.22    688.77
         N          3.127            2.478     31.22    688.76
         N          3.127            2.478     31.22    688.77
         N          3.126            2.478     31.22    688.78
         N          3.132            2.478     31.22    688.71
         N          3.124            2.478     31.22    688.79
         N          3.125            2.478     31.22    688.79
         N          3.126            2.478     31.22    688.77
         N          3.126            2.478     31.22    688.77
         N          3.127            2.478     31.22    688.76
         N          3.127            2.478     31.22    688.76
         N          3.129            2.478     31.22    688.74
         N          3.129            2.478     31.22    688.74
         N          3.128            2.478     31.22    688.75
         N          3.129            2.478     31.22    688.74
         N          3.126            2.478     31.22    688.77
         N          3.127            2.478     31.22    688.77
         N          3.129            2.478     31.22    688.75
         N          3.130            2.478     31.22    688.74
         N          3.129            2.478     31.22    688.75
         N          3.129            2.478     31.22    688.74

         Molecular C6 ( Ry / a.u.^6 ) =    437698.51


     gamma-point specific algorithms are used
     Message from routine setup :
     BEWARE: nonlinear core correction is not consistent with hybrid XC

     Subspace diagonalization in iterative solution of the eigenvalue problem:
     one sub-group per band group will be used
     scalapack distributed-memory algorithm (size of sub-group:  8*  8 procs)

     EXX: grid of k+q points same as grid of k-points
 
     Parallelization info
     --------------------
     sticks:   dense  smooth     PW     G-vecs:    dense   smooth      PW
     Min          82      82     19                 7894     7894     980
     Max          84      84     22                 7924     7924    1002
     Sum       10663   10663   2677              1012373  1012373  126595
 


     bravais-lattice index     =            0
     lattice parameter (alat)  =      33.2346  a.u.
     unit-cell volume          =   36184.4017 (a.u.)^3
     number of atoms/cell      =           98
     number of atomic types    =            5
     number of electrons       =       391.00
     number of Kohn-Sham states=          245
     kinetic-energy cutoff     =      35.0000  Ry
     charge density cutoff     =     140.0000  Ry
     cutoff for Fock operator  =     140.0000  Ry
     convergence threshold     =      1.0E-06
     mixing beta               =       0.7000
     number of iterations used =            8  plain     mixing
     Exchange-correlation      = HSE ( 1  4 12  4 0 0)
     EXX-fraction              =        0.32
     Using LIBXC version       =    4   3   4

     celldm(1)=  33.234611  celldm(2)=   0.000000  celldm(3)=   0.000000
     celldm(4)=   0.000000  celldm(5)=   0.000000  celldm(6)=   0.000000

     crystal axes: (cart. coord. in units of alat)
               a(1) = (   1.000640  -0.000349   0.000000 )  
               a(2) = (  -0.500622   0.866405   0.000000 )  
               a(3) = (   0.000000   0.000000   1.137204 )  

     reciprocal axes: (cart. coord. in units 2 pi/alat)
               b(1) = (  0.999562  0.577562  0.000000 )  
               b(2) = (  0.000402  1.154427  0.000000 )  
               b(3) = (  0.000000  0.000000  0.879350 )  


     PseudoPot. # 1 for B  read from file:
     ./pseudo/B.pbe-n-kjpaw_psl.1.0.0.UPF
     MD5 check sum: 8c825a5969375aca5c2c6ad5945b3059
     Pseudo is Projector augmented-wave + core cor, Zval =  3.0
     Generated using "atomic" code by A. Dal Corso v.6.3
     Shape of augmentation charge: PSQ
     Using radial grid of 1059 points,  4 beta functions with: 
                l(1) =   0
                l(2) =   0
                l(3) =   1
                l(4) =   1
     Q(r) pseudized with 0 coefficients 


     PseudoPot. # 2 for N  read from file:
     ./pseudo/N.pbe-n-kjpaw_psl.1.0.0.UPF
     MD5 check sum: 14c48229446f9f2d411169a3abcbc3fa
     Pseudo is Projector augmented-wave + core cor, Zval =  5.0
     Generated using "atomic" code by A. Dal Corso v.6.3
     Shape of augmentation charge: PSQ
     Using radial grid of 1085 points,  4 beta functions with: 
                l(1) =   0
                l(2) =   0
                l(3) =   1
                l(4) =   1
     Q(r) pseudized with 0 coefficients 


     PseudoPot. # 3 for C  read from file:
     ./pseudo/C.pbe-n-kjpaw_psl.1.0.0.UPF
     MD5 check sum: 5f16ad9a65e90284d1d834d4ab3b0f7d
     Pseudo is Projector augmented-wave + core cor, Zval =  4.0
     Generated using "atomic" code by A. Dal Corso v.6.3
     Shape of augmentation charge: PSQ
     Using radial grid of 1073 points,  4 beta functions with: 
                l(1) =   0
                l(2) =   0
                l(3) =   1
                l(4) =   1
     Q(r) pseudized with 0 coefficients 


     PseudoPot. # 4 for C  read from file:
     ./pseudo/C.pbe-n-kjpaw_psl.1.0.0.UPF
     MD5 check sum: 5f16ad9a65e90284d1d834d4ab3b0f7d
     Pseudo is Projector augmented-wave + core cor, Zval =  4.0
     Generated using "atomic" code by A. Dal Corso v.6.3
     Shape of augmentation charge: PSQ
     Using radial grid of 1073 points,  4 beta functions with: 
                l(1) =   0
                l(2) =   0
                l(3) =   1
                l(4) =   1
     Q(r) pseudized with 0 coefficients 


     PseudoPot. # 5 for C  read from file:
     ./pseudo/C.pbe-n-kjpaw_psl.1.0.0.UPF
     MD5 check sum: 5f16ad9a65e90284d1d834d4ab3b0f7d
     Pseudo is Projector augmented-wave + core cor, Zval =  4.0
     Generated using "atomic" code by A. Dal Corso v.6.3
     Shape of augmentation charge: PSQ
     Using radial grid of 1073 points,  4 beta functions with: 
                l(1) =   0
                l(2) =   0
                l(3) =   1
                l(4) =   1
     Q(r) pseudized with 0 coefficients 


     atomic species   valence    mass     pseudopotential
        B              3.00    10.00000     B ( 1.00)
        N              5.00    14.00000     N ( 1.00)
        C1             4.00    12.00000     C ( 1.00)
        C2             4.00    12.00000     C ( 1.00)
        C3             4.00    12.00000     C ( 1.00)

     Starting magnetic structure 
     atomic species   magnetization
        B            0.000
        N            0.000
        C1           1.000
        C2           0.000
        C3           0.000

     No symmetry found



   Cartesian axes

     site n.     atom                  positions (alat units)
         1           B   tau(   1) = (  -0.0000233   0.0821617   0.5686018  )
         2           B   tau(   2) = (  -0.0713866   0.2062009   0.5686018  )
         3           B   tau(   3) = (  -0.1430783   0.3301031   0.5686018  )
         4           B   tau(   4) = (  -0.2149375   0.4537632   0.5686018  )
         5           B   tau(   5) = (  -0.2861755   0.5775434   0.5686018  )
         6           B   tau(   6) = (  -0.3574872   0.7014372   0.5686018  )
         7           B   tau(   7) = (  -0.4290711   0.8250953   0.5686018  )
         8           B   tau(   8) = (   0.1428779   0.0818580   0.5686018  )
         9           B   tau(   9) = (   0.0712222   0.2053694   0.5686018  )
        10           B   tau(  10) = (   0.0002327   0.3301362   0.5686018  )
        11           B   tau(  11) = (  -0.0725304   0.4539838   0.5686018  )
        12           B   tau(  12) = (  -0.1441451   0.5777657   0.5686018  )
        13           B   tau(  13) = (  -0.2149187   0.7014543   0.5686018  )
        14           B   tau(  14) = (  -0.2861881   0.8249309   0.5686018  )
        15           B   tau(  15) = (   0.2862131   0.0818140   0.5686018  )
        16           B   tau(  16) = (   0.2148456   0.2045690   0.5686018  )
        17           B   tau(  17) = (   0.1436176   0.3272083   0.5686018  )
        18           B   tau(  18) = (   0.0696289   0.4562046   0.5686018  )
        19           B   tau(  19) = (  -0.0025925   0.5788678   0.5686018  )
        20           B   tau(  20) = (  -0.0724144   0.7020070   0.5686018  )
        21           B   tau(  21) = (  -0.1432370   0.8251201   0.5686018  )
        22           B   tau(  22) = (   0.4289841   0.0823577   0.5686018  )
        23           B   tau(  23) = (   0.3574544   0.2061244   0.5686018  )
        24           B   tau(  24) = (   0.2853662   0.3296798   0.5686018  )
        25           C2  tau(  25) = (   0.2152526   0.4530948   0.5686018  )
        26           B   tau(  26) = (   0.1397476   0.5776538   0.5686018  )
        27           B   tau(  27) = (   0.0705912   0.7018778   0.5686018  )
        28           B   tau(  28) = (  -0.0004212   0.8253162   0.5686018  )
        29           B   tau(  29) = (   0.5717760   0.0822445   0.5686018  )
        30           B   tau(  30) = (   0.5003561   0.2060412   0.5686018  )
        31           B   tau(  31) = (   0.4287233   0.3298475   0.5686018  )
        32           B   tau(  32) = (   0.3571899   0.4540822   0.5686018  )
        33           B   tau(  33) = (   0.2884561   0.5780758   0.5686018  )
        34           B   tau(  34) = (   0.2142280   0.7007869   0.5686018  )
        35           B   tau(  35) = (   0.1426011   0.8249144   0.5686018  )
        36           B   tau(  36) = (   0.7147681   0.0821485   0.5686018  )
        37           B   tau(  37) = (   0.6432419   0.2059952   0.5686018  )
        38           B   tau(  38) = (   0.5717591   0.3297149   0.5686018  )
        39           B   tau(  39) = (   0.5002362   0.4534298   0.5686018  )
        40           B   tau(  40) = (   0.4302789   0.5777103   0.5686018  )
        41           B   tau(  41) = (   0.3577740   0.7016916   0.5686018  )
        42           B   tau(  42) = (   0.2857495   0.8247786   0.5686018  )
        43           B   tau(  43) = (   0.8578476   0.0820925   0.5686018  )
        44           B   tau(  44) = (   0.7862593   0.2059749   0.5686018  )
        45           B   tau(  45) = (   0.7146801   0.3297618   0.5686018  )
        46           B   tau(  46) = (   0.6431861   0.4533666   0.5686018  )
        47           B   tau(  47) = (   0.5722715   0.5772817   0.5686018  )
        48           B   tau(  48) = (   0.5005658   0.7013916   0.5686018  )
        49           B   tau(  49) = (   0.4288522   0.8249958   0.5686018  )
        50           N   tau(  50) = (   0.0714331   0.0409759   0.5686018  )
        51           N   tau(  51) = (  -0.0001876   0.1644906   0.5686018  )
        52           N   tau(  52) = (  -0.0713557   0.2888776   0.5686018  )
        53           N   tau(  53) = (  -0.1436341   0.4125195   0.5686018  )
        54           N   tau(  54) = (  -0.2151393   0.5362333   0.5686018  )
        55           N   tau(  55) = (  -0.2862233   0.6600795   0.5686018  )
        56           N   tau(  56) = (  -0.3576342   0.7838513   0.5686018  )
        57           N   tau(  57) = (   0.2145160   0.0409095   0.5686018  )
        58           N   tau(  58) = (   0.1429488   0.1642146   0.5686018  )
        59           N   tau(  59) = (   0.0713660   0.2876061   0.5686018  )
        60           N   tau(  60) = (  -0.0007870   0.4130708   0.5686018  )
        61           N   tau(  61) = (  -0.0731783   0.5365814   0.5686018  )
        62           N   tau(  62) = (  -0.1436888   0.6603299   0.5686018  )
        63           N   tau(  63) = (  -0.2147393   0.7838935   0.5686018  )
        64           N   tau(  64) = (   0.3576142   0.0410192   0.5686018  )
        65           N   tau(  65) = (   0.2863754   0.1641474   0.5686018  )
        66           N   tau(  66) = (   0.2150130   0.2867948   0.5686018  )
        67           C1  tau(  67) = (   0.1457790   0.4134614   0.5686018  )
        68           N   tau(  68) = (   0.0679304   0.5381514   0.5686018  )
        69           N   tau(  69) = (  -0.0012643   0.6611402   0.5686018  )
        70           N   tau(  70) = (  -0.0719434   0.7842561   0.5686018  )
        71           N   tau(  71) = (   0.5003317   0.0412613   0.5686018  )
        72           N   tau(  72) = (   0.4288916   0.1649165   0.5686018  )
        73           N   tau(  73) = (   0.3571532   0.2888803   0.5686018  )
        74           N   tau(  74) = (   0.2850449   0.4128002   0.5686018  )
        75           C3  tau(  75) = (   0.2148394   0.5330775   0.5686018  )
        76           N   tau(  76) = (   0.1418947   0.6602027   0.5686018  )
        77           N   tau(  77) = (   0.0709485   0.7841876   0.5686018  )
        78           N   tau(  78) = (   0.6432797   0.0409898   0.5686018  )
        79           N   tau(  79) = (   0.5717930   0.1647678   0.5686018  )
        80           N   tau(  80) = (   0.5002145   0.2885720   0.5686018  )
        81           N   tau(  81) = (   0.4284168   0.4123125   0.5686018  )
        82           N   tau(  82) = (   0.3591528   0.5364523   0.5686018  )
        83           N   tau(  83) = (   0.2866267   0.6604486   0.5686018  )
        84           N   tau(  84) = (   0.2141647   0.7834136   0.5686018  )
        85           N   tau(  85) = (   0.7862879   0.0408973   0.5686018  )
        86           N   tau(  86) = (   0.7147525   0.1647085   0.5686018  )
        87           N   tau(  87) = (   0.6432213   0.2884853   0.5686018  )
        88           N   tau(  88) = (   0.5716419   0.4121672   0.5686018  )
        89           N   tau(  89) = (   0.5010498   0.5359745   0.5686018  )
        90           N   tau(  90) = (   0.4292784   0.6601520   0.5686018  )
        91           N   tau(  91) = (   0.3574711   0.7839737   0.5686018  )
        92           N   tau(  92) = (   0.9292454   0.0408710   0.5686018  )
        93           N   tau(  93) = (   0.8577438   0.1646625   0.5686018  )
        94           N   tau(  94) = (   0.7861596   0.2884650   0.5686018  )
        95           N   tau(  95) = (   0.7144506   0.4121259   0.5686018  )
        96           N   tau(  96) = (   0.6433014   0.5358440   0.5686018  )
        97           N   tau(  97) = (   0.5718474   0.6598256   0.5686018  )
        98           N   tau(  98) = (   0.5002484   0.7837058   0.5686018  )

     number of k points=     1
                       cart. coord. in units 2pi/alat
        k(    1) = (   0.0000000   0.0000000   0.0000000), wk =   1.0000000

     Dense  grid:   506187 G-vectors     FFT dimensions: ( 125, 125, 144)

     Occupations read from input 

      Spin-up

        1.0000   1.0000   1.0000   1.0000   1.0000   1.0000   1.0000   1.0000
        1.0000   1.0000   1.0000   1.0000   1.0000   1.0000   1.0000   1.0000
        1.0000   1.0000   1.0000   1.0000   1.0000   1.0000   1.0000   1.0000
        1.0000   1.0000   1.0000   1.0000   1.0000   1.0000   1.0000   1.0000
        1.0000   1.0000   1.0000   1.0000   1.0000   1.0000   1.0000   1.0000
        1.0000   1.0000   1.0000   1.0000   1.0000   1.0000   1.0000   1.0000
        1.0000   1.0000   1.0000   1.0000   1.0000   1.0000   1.0000   1.0000
        1.0000   1.0000   1.0000   1.0000   1.0000   1.0000   1.0000   1.0000
        1.0000   1.0000   1.0000   1.0000   1.0000   1.0000   1.0000   1.0000
        1.0000   1.0000   1.0000   1.0000   1.0000   1.0000   1.0000   1.0000
        1.0000   1.0000   1.0000   1.0000   1.0000   1.0000   1.0000   1.0000
        1.0000   1.0000   1.0000   1.0000   1.0000   1.0000   1.0000   1.0000
        1.0000   1.0000   1.0000   1.0000   1.0000   1.0000   1.0000   1.0000
        1.0000   1.0000   1.0000   1.0000   1.0000   1.0000   1.0000   1.0000
        1.0000   1.0000   1.0000   1.0000   1.0000   1.0000   1.0000   1.0000
        1.0000   1.0000   1.0000   1.0000   1.0000   1.0000   1.0000   1.0000
        1.0000   1.0000   1.0000   1.0000   1.0000   1.0000   1.0000   1.0000
        1.0000   1.0000   1.0000   1.0000   1.0000   1.0000   1.0000   1.0000
        1.0000   1.0000   1.0000   1.0000   1.0000   1.0000   1.0000   1.0000
        1.0000   1.0000   1.0000   1.0000   1.0000   1.0000   1.0000   1.0000
        1.0000   1.0000   1.0000   1.0000   1.0000   1.0000   1.0000   1.0000
        1.0000   1.0000   1.0000   1.0000   1.0000   1.0000   1.0000   1.0000
        1.0000   1.0000   1.0000   1.0000   1.0000   1.0000   1.0000   1.0000
        1.0000   1.0000   1.0000   1.0000   1.0000   1.0000   1.0000   1.0000
        1.0000   1.0000   1.0000   1.0000   0.0000   0.0000   0.0000   0.0000
        0.0000   0.0000   0.0000   0.0000   0.0000   0.0000   0.0000   0.0000
        0.0000   0.0000   0.0000   0.0000   0.0000   0.0000   0.0000   0.0000
        0.0000   0.0000   0.0000   0.0000   0.0000   0.0000   0.0000   0.0000
        0.0000   0.0000   0.0000   0.0000   0.0000   0.0000   0.0000   0.0000
        0.0000   0.0000   0.0000   0.0000   0.0000   0.0000   0.0000   0.0000
        0.0000   0.0000   0.0000   0.0000   0.0000

      Spin-down

        1.0000   1.0000   1.0000   1.0000   1.0000   1.0000   1.0000   1.0000
        1.0000   1.0000   1.0000   1.0000   1.0000   1.0000   1.0000   1.0000
        1.0000   1.0000   1.0000   1.0000   1.0000   1.0000   1.0000   1.0000
        1.0000   1.0000   1.0000   1.0000   1.0000   1.0000   1.0000   1.0000
        1.0000   1.0000   1.0000   1.0000   1.0000   1.0000   1.0000   1.0000
        1.0000   1.0000   1.0000   1.0000   1.0000   1.0000   1.0000   1.0000
        1.0000   1.0000   1.0000   1.0000   1.0000   1.0000   1.0000   1.0000
        1.0000   1.0000   1.0000   1.0000   1.0000   1.0000   1.0000   1.0000
        1.0000   1.0000   1.0000   1.0000   1.0000   1.0000   1.0000   1.0000
        1.0000   1.0000   1.0000   1.0000   1.0000   1.0000   1.0000   1.0000
        1.0000   1.0000   1.0000   1.0000   1.0000   1.0000   1.0000   1.0000
        1.0000   1.0000   1.0000   1.0000   1.0000   1.0000   1.0000   1.0000
        1.0000   1.0000   1.0000   1.0000   1.0000   1.0000   1.0000   1.0000
        1.0000   1.0000   1.0000   1.0000   1.0000   1.0000   1.0000   1.0000
        1.0000   1.0000   1.0000   1.0000   1.0000   1.0000   1.0000   1.0000
        1.0000   1.0000   1.0000   1.0000   1.0000   1.0000   1.0000   1.0000
        1.0000   1.0000   1.0000   1.0000   1.0000   1.0000   1.0000   1.0000
        1.0000   1.0000   1.0000   1.0000   1.0000   1.0000   1.0000   1.0000
        1.0000   1.0000   1.0000   1.0000   1.0000   1.0000   1.0000   1.0000
        1.0000   1.0000   1.0000   1.0000   1.0000   1.0000   1.0000   1.0000
        1.0000   1.0000   1.0000   1.0000   1.0000   1.0000   1.0000   1.0000
        1.0000   1.0000   1.0000   1.0000   1.0000   1.0000   1.0000   1.0000
        1.0000   1.0000   1.0000   1.0000   1.0000   1.0000   1.0000   1.0000
        1.0000   1.0000   1.0000   1.0000   1.0000   1.0000   1.0000   1.0000
        1.0000   1.0000   1.0000   0.0000   0.0000   0.0000   0.0000   0.0000
        0.0000   0.0000   0.0000   0.0000   0.0000   0.0000   0.0000   0.0000
        0.0000   0.0000   0.0000   0.0000   0.0000   0.0000   0.0000   0.0000
        0.0000   0.0000   0.0000   0.0000   0.0000   0.0000   0.0000   0.0000
        0.0000   0.0000   0.0000   0.0000   0.0000   0.0000   0.0000   0.0000
        0.0000   0.0000   0.0000   0.0000   0.0000   0.0000   0.0000   0.0000
        0.0000   0.0000   0.0000   0.0000   0.0000

     Estimated max dynamical RAM per process >     159.80 MB

     Estimated total dynamical RAM >      19.97 GB
     Generating pointlists ...
     new r_m :   0.0336 (alat units)  1.1164 (a.u.) for type    1
     new r_m :   0.0332 (alat units)  1.1048 (a.u.) for type    2
     new r_m :   0.0330 (alat units)  1.0965 (a.u.) for type    3
     new r_m :   0.0330 (alat units)  1.0965 (a.u.) for type    4
     new r_m :   0.0330 (alat units)  1.0965 (a.u.) for type    5

     Check: negative core charge=   -0.000028

     Initial potential from superposition of free atoms

     starting charge  390.98597, renormalised to  391.00000

     negative rho (up, down):  1.613E-01 2.553E-02
     Starting wfcs are  392 randomized atomic wfcs

     total cpu time spent up to now is        5.1 secs

     Self-consistent Calculation

     iteration #  1     ecut=    35.00 Ry     beta= 0.70
     CG style diagonalization
     ethr =  1.00E-02,  avg # of iterations =  3.1

     negative rho (up, down):  7.103E-01 1.064E-02

     total cpu time spent up to now is       23.2 secs

     total energy              =   -1933.26929312 Ry
     Harris-Foulkes estimate   =   -1946.21161152 Ry
     estimated scf accuracy    <      19.75387531 Ry

     total magnetization       =     1.00 Bohr mag/cell
     absolute magnetization    =     1.54 Bohr mag/cell

     iteration #  2     ecut=    35.00 Ry     beta= 0.70
     CG style diagonalization
     ethr =  5.05E-03,  avg # of iterations =  4.0

     negative rho (up, down):  7.871E-01 7.776E-03

     total cpu time spent up to now is       39.9 secs

     total energy              =   -1937.61279180 Ry
     Harris-Foulkes estimate   =   -1943.58936870 Ry
     estimated scf accuracy    <      11.68994243 Ry

     total magnetization       =     1.00 Bohr mag/cell
     absolute magnetization    =     1.38 Bohr mag/cell

     iteration #  3     ecut=    35.00 Ry     beta= 0.70
     CG style diagonalization
     ethr =  2.99E-03,  avg # of iterations =  3.8

     negative rho (up, down):  9.272E-01 6.300E-03

     total cpu time spent up to now is       55.3 secs

     total energy              =   -1940.03418187 Ry
     Harris-Foulkes estimate   =   -1940.22383152 Ry
     estimated scf accuracy    <       0.34864304 Ry

     total magnetization       =     1.00 Bohr mag/cell
     absolute magnetization    =     1.24 Bohr mag/cell

     iteration #  4     ecut=    35.00 Ry     beta= 0.70
     CG style diagonalization
     ethr =  8.92E-05,  avg # of iterations =  8.2

     negative rho (up, down):  9.912E-01 5.346E-03

     total cpu time spent up to now is       89.2 secs

     total energy              =   -1940.11706784 Ry
     Harris-Foulkes estimate   =   -1940.30846561 Ry
     estimated scf accuracy    <       0.49208808 Ry

     total magnetization       =     1.00 Bohr mag/cell
     absolute magnetization    =     1.18 Bohr mag/cell

     iteration #  5     ecut=    35.00 Ry     beta= 0.70
     CG style diagonalization
     ethr =  8.92E-05,  avg # of iterations =  3.4

     negative rho (up, down):  1.022E+00 5.114E-03

     total cpu time spent up to now is      102.6 secs

     total energy              =   -1940.19398050 Ry
     Harris-Foulkes estimate   =   -1940.20042086 Ry
     estimated scf accuracy    <       0.01770129 Ry

     total magnetization       =     1.00 Bohr mag/cell
     absolute magnetization    =     1.20 Bohr mag/cell

     iteration #  6     ecut=    35.00 Ry     beta= 0.70
     CG style diagonalization
     c_bands:  5 eigenvalues not converged
     c_bands:  3 eigenvalues not converged
     ethr =  4.53E-06,  avg # of iterations =  8.3

     negative rho (up, down):  1.050E+00 5.182E-03

     total cpu time spent up to now is      136.0 secs

     total energy              =   -1940.20001347 Ry
     Harris-Foulkes estimate   =   -1940.20199209 Ry
     estimated scf accuracy    <       0.00803929 Ry

     total magnetization       =     1.00 Bohr mag/cell
     absolute magnetization    =     1.20 Bohr mag/cell

     iteration #  7     ecut=    35.00 Ry     beta= 0.70
     CG style diagonalization
     c_bands:  3 eigenvalues not converged
     c_bands:  1 eigenvalues not converged
     ethr =  2.06E-06,  avg # of iterations =  3.8

     negative rho (up, down):  1.053E+00 5.218E-03

     total cpu time spent up to now is      151.4 secs

     total energy              =   -1940.20174058 Ry
     Harris-Foulkes estimate   =   -1940.20195749 Ry
     estimated scf accuracy    <       0.00088616 Ry

     total magnetization       =     1.00 Bohr mag/cell
     absolute magnetization    =     1.21 Bohr mag/cell

     iteration #  8     ecut=    35.00 Ry     beta= 0.70
     CG style diagonalization
     c_bands:  1 eigenvalues not converged
     c_bands:  1 eigenvalues not converged
     ethr =  2.27E-07,  avg # of iterations =  3.5

     negative rho (up, down):  1.052E+00 5.216E-03

     total cpu time spent up to now is      165.3 secs

     total energy              =   -1940.20186654 Ry
     Harris-Foulkes estimate   =   -1940.20192889 Ry
     estimated scf accuracy    <       0.00027582 Ry

     total magnetization       =     1.00 Bohr mag/cell
     absolute magnetization    =     1.21 Bohr mag/cell

     iteration #  9     ecut=    35.00 Ry     beta= 0.70
     CG style diagonalization
     c_bands:  1 eigenvalues not converged
     ethr =  7.05E-08,  avg # of iterations =  3.9

     negative rho (up, down):  1.051E+00 5.255E-03

     total cpu time spent up to now is      181.3 secs

     total energy              =   -1940.20197550 Ry
     Harris-Foulkes estimate   =   -1940.20195629 Ry
     estimated scf accuracy    <       0.00003527 Ry

     total magnetization       =     1.00 Bohr mag/cell
     absolute magnetization    =     1.21 Bohr mag/cell

     iteration # 10     ecut=    35.00 Ry     beta= 0.70
     CG style diagonalization
     ethr =  9.02E-09,  avg # of iterations =  3.6

     negative rho (up, down):  1.051E+00 5.293E-03

     total cpu time spent up to now is      196.0 secs

     total energy              =   -1940.20198619 Ry
     Harris-Foulkes estimate   =   -1940.20198926 Ry
     estimated scf accuracy    <       0.00002540 Ry

     total magnetization       =     1.00 Bohr mag/cell
     absolute magnetization    =     1.21 Bohr mag/cell

     iteration # 11     ecut=    35.00 Ry     beta= 0.70
     CG style diagonalization
     ethr =  6.50E-09,  avg # of iterations =  3.3

     negative rho (up, down):  1.051E+00 5.283E-03

     total cpu time spent up to now is      208.8 secs

     total energy              =   -1940.20198930 Ry
     Harris-Foulkes estimate   =   -1940.20199130 Ry
     estimated scf accuracy    <       0.00000464 Ry

     total magnetization       =     1.00 Bohr mag/cell
     absolute magnetization    =     1.21 Bohr mag/cell

     iteration # 12     ecut=    35.00 Ry     beta= 0.70
     CG style diagonalization
     ethr =  1.19E-09,  avg # of iterations =  3.9

     negative rho (up, down):  1.051E+00 5.290E-03
 
     Magnetic moment per site:
     atom:    1    charge:    0.8534    magn:   -0.0000    constr:    0.0000
     atom:    2    charge:    0.8477    magn:    0.0003    constr:    0.0000
     atom:    3    charge:    0.8465    magn:    0.0008    constr:    0.0000
     atom:    4    charge:    0.8496    magn:   -0.0000    constr:    0.0000
     atom:    5    charge:    0.8513    magn:    0.0000    constr:    0.0000
     atom:    6    charge:    0.8523    magn:    0.0001    constr:    0.0000
     atom:    7    charge:    0.8532    magn:   -0.0000    constr:    0.0000
     atom:    8    charge:    0.8524    magn:    0.0001    constr:    0.0000
     atom:    9    charge:    0.8508    magn:   -0.0003    constr:    0.0000
     atom:   10    charge:    0.8400    magn:    0.0030    constr:    0.0000
     atom:   11    charge:    0.8469    magn:    0.0005    constr:    0.0000
     atom:   12    charge:    0.8507    magn:    0.0001    constr:    0.0000
     atom:   13    charge:    0.8503    magn:   -0.0000    constr:    0.0000
     atom:   14    charge:    0.8523    magn:    0.0001    constr:    0.0000
     atom:   15    charge:    0.8518    magn:   -0.0001    constr:    0.0000
     atom:   16    charge:    0.8532    magn:    0.0001    constr:    0.0000
     atom:   17    charge:    0.8588    magn:    0.0025    constr:    0.0000
     atom:   18    charge:    0.8517    magn:    0.0074    constr:    0.0000
     atom:   19    charge:    0.8611    magn:   -0.0004    constr:    0.0000
     atom:   20    charge:    0.8507    magn:    0.0001    constr:    0.0000
     atom:   21    charge:    0.8513    magn:    0.0000    constr:    0.0000
     atom:   22    charge:    0.8481    magn:    0.0000    constr:    0.0000
     atom:   23    charge:    0.8449    magn:    0.0003    constr:    0.0000
     atom:   24    charge:    0.8446    magn:   -0.0007    constr:    0.0000
     atom:   25    charge:    1.6292    magn:   -0.0263    constr:    0.0000
     atom:   26    charge:    0.8516    magn:    0.0075    constr:    0.0000
     atom:   27    charge:    0.8468    magn:    0.0005    constr:    0.0000
     atom:   28    charge:    0.8496    magn:   -0.0000    constr:    0.0000
     atom:   29    charge:    0.8477    magn:    0.0001    constr:    0.0000
     atom:   30    charge:    0.8468    magn:    0.0000    constr:    0.0000
     atom:   31    charge:    0.8469    magn:   -0.0003    constr:    0.0000
     atom:   32    charge:    0.8446    magn:   -0.0007    constr:    0.0000
     atom:   33    charge:    0.8587    magn:    0.0026    constr:    0.0000
     atom:   34    charge:    0.8399    magn:    0.0030    constr:    0.0000
     atom:   35    charge:    0.8465    magn:    0.0008    constr:    0.0000
     atom:   36    charge:    0.8474    magn:    0.0003    constr:    0.0000
     atom:   37    charge:    0.8467    magn:   -0.0000    constr:    0.0000
     atom:   38    charge:    0.8468    magn:    0.0000    constr:    0.0000
     atom:   39    charge:    0.8449    magn:    0.0003    constr:    0.0000
     atom:   40    charge:    0.8532    magn:    0.0001    constr:    0.0000
     atom:   41    charge:    0.8508    magn:   -0.0003    constr:    0.0000
     atom:   42    charge:    0.8477    magn:    0.0003    constr:    0.0000
     atom:   43    charge:    0.8490    magn:   -0.0000    constr:    0.0000
     atom:   44    charge:    0.8474    magn:    0.0003    constr:    0.0000
     atom:   45    charge:    0.8477    magn:    0.0001    constr:    0.0000
     atom:   46    charge:    0.8481    magn:    0.0000    constr:    0.0000
     atom:   47    charge:    0.8518    magn:   -0.0001    constr:    0.0000
     atom:   48    charge:    0.8524    magn:    0.0001    constr:    0.0000
     atom:   49    charge:    0.8534    magn:   -0.0000    constr:    0.0000
     atom:   50    charge:    2.7632    magn:    0.0005    constr:    0.0000
     atom:   51    charge:    2.7613    magn:   -0.0001    constr:    0.0000
     atom:   52    charge:    2.7534    magn:    0.0029    constr:    0.0000
     atom:   53    charge:    2.7579    magn:    0.0000    constr:    0.0000
     atom:   54    charge:    2.7600    magn:    0.0001    constr:    0.0000
     atom:   55    charge:    2.7580    magn:   -0.0000    constr:    0.0000
     atom:   56    charge:    2.7611    magn:   -0.0001    constr:    0.0000
     atom:   57    charge:    2.7594    magn:    0.0003    constr:    0.0000
     atom:   58    charge:    2.7575    magn:    0.0040    constr:    0.0000
     atom:   59    charge:    2.7528    magn:    0.0066    constr:    0.0000
     atom:   60    charge:    2.7489    magn:    0.0124    constr:    0.0000
     atom:   61    charge:    2.7600    magn:    0.0012    constr:    0.0000
     atom:   62    charge:    2.7558    magn:   -0.0001    constr:    0.0000
     atom:   63    charge:    2.7580    magn:    0.0000    constr:    0.0000
     atom:   64    charge:    2.7606    magn:    0.0000    constr:    0.0000
     atom:   65    charge:    2.7600    magn:    0.0003    constr:    0.0000
     atom:   66    charge:    2.7584    magn:    0.0160    constr:    0.0000
     atom:   67    charge:    1.6561    magn:    0.1198    constr:    0.0000
     atom:   68    charge:    2.7691    magn:   -0.0024    constr:    0.0000
     atom:   69    charge:    2.7600    magn:    0.0012    constr:    0.0000
     atom:   70    charge:    2.7600    magn:    0.0001    constr:    0.0000
     atom:   71    charge:    2.7573    magn:   -0.0000    constr:    0.0000
     atom:   72    charge:    2.7556    magn:    0.0002    constr:    0.0000
     atom:   73    charge:    2.7526    magn:    0.0013    constr:    0.0000
     atom:   74    charge:    2.7368    magn:   -0.0027    constr:    0.0000
     atom:   75    charge:    1.6561    magn:    0.1191    constr:    0.0000
     atom:   76    charge:    2.7489    magn:    0.0123    constr:    0.0000
     atom:   77    charge:    2.7580    magn:    0.0000    constr:    0.0000
     atom:   78    charge:    2.7559    magn:    0.0000    constr:    0.0000
     atom:   79    charge:    2.7556    magn:   -0.0000    constr:    0.0000
     atom:   80    charge:    2.7553    magn:   -0.0001    constr:    0.0000
     atom:   81    charge:    2.7526    magn:    0.0013    constr:    0.0000
     atom:   82    charge:    2.7585    magn:    0.0160    constr:    0.0000
     atom:   83    charge:    2.7529    magn:    0.0065    constr:    0.0000
     atom:   84    charge:    2.7534    magn:    0.0029    constr:    0.0000
     atom:   85    charge:    2.7575    magn:    0.0004    constr:    0.0000
     atom:   86    charge:    2.7551    magn:   -0.0001    constr:    0.0000
     atom:   87    charge:    2.7556    magn:   -0.0000    constr:    0.0000
     atom:   88    charge:    2.7556    magn:    0.0002    constr:    0.0000
     atom:   89    charge:    2.7600    magn:    0.0003    constr:    0.0000
     atom:   90    charge:    2.7575    magn:    0.0039    constr:    0.0000
     atom:   91    charge:    2.7613    magn:   -0.0001    constr:    0.0000
     atom:   92    charge:    2.7635    magn:   -0.0000    constr:    0.0000
     atom:   93    charge:    2.7575    magn:    0.0004    constr:    0.0000
     atom:   94    charge:    2.7559    magn:    0.0001    constr:    0.0000
     atom:   95    charge:    2.7573    magn:   -0.0000    constr:    0.0000
     atom:   96    charge:    2.7606    magn:    0.0000    constr:    0.0000
     atom:   97    charge:    2.7594    magn:    0.0003    constr:    0.0000
     atom:   98    charge:    2.7632    magn:    0.0005    constr:    0.0000

     total cpu time spent up to now is      224.7 secs

     End of self-consistent calculation

 ------ SPIN UP ------------


          k = 0.0000 0.0000 0.0000 ( 63298 PWs)   bands (ev):

   -21.7834 -21.5721 -21.3984 -21.3901 -21.3719 -21.3184 -21.2658 -20.8519
   -20.6588 -20.6420 -20.6409 -20.5582 -20.5460 -20.4235 -20.3034 -20.2956
   -20.2739 -20.1402 -20.1274 -19.5891 -19.4074 -19.4048 -19.4015 -19.3903
   -19.3885 -19.3801 -19.3800 -19.3475 -19.3311 -19.1775 -19.1708 -19.0381
   -18.9859 -18.9857 -18.9568 -18.7913 -18.7840 -18.5599 -18.5499 -18.5383
   -18.5267 -18.4661 -18.4488 -18.3966 -18.3728 -18.3694 -18.3549 -17.0705
   -15.0977 -13.1155 -12.7628 -12.7567 -12.7455 -12.7130 -12.7065 -12.6405
   -12.5635 -12.5314 -12.5261 -12.4754 -12.4131 -12.1540 -12.0700 -12.0570
   -12.0340 -11.9818 -11.9611 -11.5414 -11.4213 -11.4034 -11.3889 -11.3820
   -11.3703 -11.3611 -11.3583 -11.3170 -11.3042 -11.1214 -11.0495 -10.8731
   -10.7200 -10.7080 -10.6749 -10.6665 -10.5123 -10.0675 -10.0351 -10.0012
    -9.9316  -9.8832  -9.8171  -9.3974  -9.3281  -9.3123  -9.3041  -9.2809
    -9.2745  -9.2215  -9.0510  -8.9298  -8.9158  -8.8980  -8.8965  -8.8842
    -8.8805  -8.8724  -8.8685  -8.8532  -8.8296  -8.8233  -8.8164  -8.8092
    -8.8087  -8.8063  -8.7923  -8.7528  -8.7525  -8.7014  -8.6766  -8.6655
    -8.4819  -8.4703  -8.1954  -8.1887  -8.1882  -8.1382  -8.0917  -7.9071
    -7.8656  -7.8115  -7.7969  -7.7952  -7.7225  -7.7214  -7.5538  -7.5001
    -7.4976  -7.4661  -7.4503  -7.4380  -7.4237  -7.4064  -7.3957  -7.3497
    -7.3287  -7.3232  -7.3025  -7.2826  -7.2389  -7.2255  -7.2077  -7.0454
    -7.0275  -6.9966  -6.9601  -6.8166  -6.6578  -6.5377  -6.2249  -6.1889
    -6.1697  -6.1583  -6.1107  -6.0523  -6.0484  -6.0469  -6.0406  -6.0329
    -6.0273  -6.0257  -6.0022  -5.9853  -5.8858  -5.8164  -5.8033  -5.6981
    -5.5056  -5.4371  -5.4327  -5.4156  -5.3511  -5.2478  -5.1215  -5.1192
    -4.7846  -4.7590  -4.7439  -4.7379  -4.6786  -4.6431  -4.5339  -4.4981
    -4.4964  -4.4889  -4.3566  -3.5570  -0.0186   0.0687   0.4511   0.5833
     0.6111   0.6133   0.6190   0.6332   0.6453   0.7018   0.7231   0.7259
     0.7326   0.7520   0.7568   0.8105   0.8781   0.8987   0.9276   0.9382
     0.9733   1.0664   1.0677   1.0735   1.0830   1.0937   1.1179   1.1693
     1.2196   1.2206   1.2260   1.2356   1.2372   1.2416   1.2455   1.2613
     1.2666   1.2755   1.3043   1.6547   1.9052   1.9096   1.9098   1.9208
     1.9312   1.9420   1.9900   2.1104   2.3229

 ------ SPIN DOWN ----------


          k = 0.0000 0.0000 0.0000 ( 63298 PWs)   bands (ev):

   -21.7782 -21.5687 -21.3963 -21.3886 -21.3711 -21.3106 -21.2582 -20.8492
   -20.6550 -20.6381 -20.6356 -20.5536 -20.5421 -20.4224 -20.2968 -20.2896
   -20.2705 -20.1279 -20.1177 -19.5822 -19.4037 -19.4035 -19.3994 -19.3884
   -19.3856 -19.3769 -19.3707 -19.3367 -19.3269 -19.1715 -19.1664 -19.0340
   -18.9819 -18.9809 -18.9525 -18.7814 -18.7750 -18.5533 -18.5465 -18.5330
   -18.5235 -18.4620 -18.4412 -18.3947 -18.3693 -18.3657 -18.3505 -16.9213
   -14.8090 -13.0737 -12.7609 -12.7527 -12.7431 -12.7099 -12.7047 -12.6366
   -12.5615 -12.5274 -12.5224 -12.4597 -12.4045 -12.1486 -12.0680 -12.0543
   -12.0292 -11.9701 -11.9529 -11.5314 -11.4153 -11.3993 -11.3873 -11.3805
   -11.3686 -11.3575 -11.3569 -11.3078 -11.2933 -11.0883 -11.0254 -10.8688
   -10.7181 -10.7062 -10.6651 -10.6613 -10.4992 -10.0633 -10.0306  -9.9958
    -9.9214  -9.8686  -9.8013  -9.3946  -9.3201  -9.2998  -9.2970  -9.2765
    -9.2724  -9.2174  -9.0482  -8.9255  -8.9119  -8.8954  -8.8949  -8.8822
    -8.8765  -8.8658  -8.8516  -8.8515  -8.8279  -8.8202  -8.8118  -8.8059
    -8.8046  -8.8031  -8.7901  -8.7382  -8.7306  -8.6646  -8.6484  -8.6406
    -8.4701  -8.4389  -8.1941  -8.1869  -8.1864  -8.1193  -8.0836  -7.8925
    -7.8508  -7.8023  -7.7879  -7.7843  -7.7004  -7.6881  -7.5473  -7.4986
    -7.4945  -7.4640  -7.4489  -7.4371  -7.4178  -7.4052  -7.3938  -7.3473
    -7.3145  -7.3098  -7.2928  -7.2751  -7.2090  -7.1777  -7.1640  -7.0292
    -7.0257  -6.9957  -6.9422  -6.7895  -6.6365  -6.5103  -6.2129  -6.1858
    -6.1678  -6.1556  -6.0947  -6.0461  -6.0433  -6.0399  -6.0294  -6.0290
    -6.0187  -6.0100  -5.9760  -5.9717  -5.8217  -5.7968  -5.7664  -5.6709
    -5.4939  -5.4279  -5.4207  -5.4071  -5.2794  -5.1945  -5.0601  -5.0428
    -4.7705  -4.7497  -4.7314  -4.7283  -4.6418  -4.6299  -4.5288  -4.4894
    -4.4869  -4.4808  -4.1815  -2.8797  -0.0173   0.1530   0.4527   0.5822
     0.6109   0.6132   0.6188   0.6327   0.6470   0.7123   0.7283   0.7319
     0.7437   0.7686   0.7738   0.8151   0.8838   0.9096   0.9320   0.9551
     1.0222   1.0660   1.0672   1.0730   1.0819   1.0936   1.1231   1.1815
     1.2189   1.2199   1.2250   1.2342   1.2450   1.2510   1.2698   1.2725
     1.2789   1.3076   1.3491   1.6556   1.9050   1.9094   1.9097   1.9207
     1.9365   1.9474   1.9922   2.1275   2.2581

     highest occupied, lowest unoccupied level (ev):    -3.5570   -2.8797

!    total energy              =   -1940.20199089 Ry
     Harris-Foulkes estimate   =   -1940.20199098 Ry
     estimated scf accuracy    <       0.00000061 Ry

     total magnetization       =     1.00 Bohr mag/cell
     absolute magnetization    =     1.21 Bohr mag/cell

     convergence has been achieved in  12 iterations

     Using ACE for calculation of exact exchange

     EXX grid:   506187 G-vectors     FFT dimensions: ( 125, 125, 144)

     negative rho (up, down):  1.051E+00 5.290E-03

     EXX: now go back to refine exchange calculation

     total cpu time spent up to now is     4424.1 secs

     Self-consistent Calculation

     iteration #  1     ecut=    35.00 Ry     beta= 0.70
     CG style diagonalization
     c_bands:  2 eigenvalues not converged
     c_bands:  1 eigenvalues not converged
     ethr =  1.19E-09,  avg # of iterations = 25.4

     negative rho (up, down):  1.136E+00 5.556E-03

     total cpu time spent up to now is     4564.6 secs

     total energy              =   -1725.10501472 Ry
     Harris-Foulkes estimate   =   -1725.20549555 Ry
     estimated scf accuracy    <       0.13714208 Ry

     total magnetization       =     1.00 Bohr mag/cell
     absolute magnetization    =     1.31 Bohr mag/cell

     iteration #  2     ecut=    35.00 Ry     beta= 0.70
     CG style diagonalization
     ethr =  3.51E-05,  avg # of iterations =  4.6

     negative rho (up, down):  1.141E+00 5.448E-03

     total cpu time spent up to now is     4588.5 secs

     total energy              =   -1715.82074048 Ry
     Harris-Foulkes estimate   =   -1715.99540650 Ry
     estimated scf accuracy    <       0.50320456 Ry

     total magnetization       =     1.00 Bohr mag/cell
     absolute magnetization    =     1.31 Bohr mag/cell

     iteration #  3     ecut=    35.00 Ry     beta= 0.70
     CG style diagonalization
     ethr =  3.51E-05,  avg # of iterations =  3.8

     negative rho (up, down):  1.197E+00 5.485E-03

     total cpu time spent up to now is     4606.1 secs

     total energy              =   -1715.75251528 Ry
     Harris-Foulkes estimate   =   -1715.84847929 Ry
     estimated scf accuracy    <       0.12435319 Ry

     total magnetization       =     1.00 Bohr mag/cell
     absolute magnetization    =     1.32 Bohr mag/cell

     iteration #  4     ecut=    35.00 Ry     beta= 0.70
     CG style diagonalization
     ethr =  3.18E-05,  avg # of iterations =  3.8

     negative rho (up, down):  1.189E+00 5.447E-03

     total cpu time spent up to now is     4624.6 secs

     total energy              =   -1715.79979675 Ry
     Harris-Foulkes estimate   =   -1715.82232078 Ry
     estimated scf accuracy    <       0.05554214 Ry

     total magnetization       =     1.00 Bohr mag/cell
     absolute magnetization    =     1.32 Bohr mag/cell

     iteration #  5     ecut=    35.00 Ry     beta= 0.70
     CG style diagonalization
     ethr =  1.42E-05,  avg # of iterations =  3.1

     negative rho (up, down):  1.186E+00 5.491E-03

     total cpu time spent up to now is     4638.2 secs

     total energy              =   -1715.79768577 Ry
     Harris-Foulkes estimate   =   -1715.80389758 Ry
     estimated scf accuracy    <       0.01205191 Ry

     total magnetization       =     1.00 Bohr mag/cell
     absolute magnetization    =     1.32 Bohr mag/cell

     iteration #  6     ecut=    35.00 Ry     beta= 0.70
     CG style diagonalization
     c_bands:  1 eigenvalues not converged
     ethr =  3.08E-06,  avg # of iterations =  3.8

     negative rho (up, down):  1.185E+00 5.501E-03

     total cpu time spent up to now is     4656.4 secs

     total energy              =   -1715.80016279 Ry
     Harris-Foulkes estimate   =   -1715.80026085 Ry
     estimated scf accuracy    <       0.00014569 Ry

     total magnetization       =     1.00 Bohr mag/cell
     absolute magnetization    =     1.32 Bohr mag/cell

     iteration #  7     ecut=    35.00 Ry     beta= 0.70
     CG style diagonalization
     ethr =  3.73E-08,  avg # of iterations =  3.7

     negative rho (up, down):  1.184E+00 5.504E-03

     total cpu time spent up to now is     4673.7 secs

     total energy              =   -1715.80018125 Ry
     Harris-Foulkes estimate   =   -1715.80019972 Ry
     estimated scf accuracy    <       0.00001364 Ry

     total magnetization       =     1.00 Bohr mag/cell
     absolute magnetization    =     1.32 Bohr mag/cell

     iteration #  8     ecut=    35.00 Ry     beta= 0.70
     CG style diagonalization
     ethr =  3.49E-09,  avg # of iterations =  3.8

     negative rho (up, down):  1.184E+00 5.504E-03

     total cpu time spent up to now is     4691.3 secs

     total energy              =   -1715.80017710 Ry
     Harris-Foulkes estimate   =   -1715.80018416 Ry
     estimated scf accuracy    <       0.00000837 Ry

     total magnetization       =     1.00 Bohr mag/cell
     absolute magnetization    =     1.32 Bohr mag/cell

     iteration #  9     ecut=    35.00 Ry     beta= 0.70
     CG style diagonalization
     ethr =  2.14E-09,  avg # of iterations =  3.8

     negative rho (up, down):  1.184E+00 5.505E-03
 
     Magnetic moment per site:
     atom:    1    charge:    0.8241    magn:   -0.0000    constr:    0.0000
     atom:    2    charge:    0.8182    magn:    0.0002    constr:    0.0000
     atom:    3    charge:    0.8170    magn:    0.0005    constr:    0.0000
     atom:    4    charge:    0.8202    magn:   -0.0001    constr:    0.0000
     atom:    5    charge:    0.8220    magn:    0.0000    constr:    0.0000
     atom:    6    charge:    0.8229    magn:    0.0000    constr:    0.0000
     atom:    7    charge:    0.8238    magn:   -0.0001    constr:    0.0000
     atom:    8    charge:    0.8230    magn:    0.0000    constr:    0.0000
     atom:    9    charge:    0.8214    magn:   -0.0004    constr:    0.0000
     atom:   10    charge:    0.8105    magn:    0.0024    constr:    0.0000
     atom:   11    charge:    0.8174    magn:    0.0003    constr:    0.0000
     atom:   12    charge:    0.8215    magn:    0.0000    constr:    0.0000
     atom:   13    charge:    0.8210    magn:   -0.0000    constr:    0.0000
     atom:   14    charge:    0.8229    magn:    0.0001    constr:    0.0000
     atom:   15    charge:    0.8224    magn:   -0.0001    constr:    0.0000
     atom:   16    charge:    0.8239    magn:   -0.0001    constr:    0.0000
     atom:   17    charge:    0.8308    magn:    0.0020    constr:    0.0000
     atom:   18    charge:    0.8236    magn:    0.0066    constr:    0.0000
     atom:   19    charge:    0.8319    magn:   -0.0004    constr:    0.0000
     atom:   20    charge:    0.8215    magn:    0.0001    constr:    0.0000
     atom:   21    charge:    0.8220    magn:   -0.0000    constr:    0.0000
     atom:   22    charge:    0.8187    magn:    0.0000    constr:    0.0000
     atom:   23    charge:    0.8154    magn:    0.0002    constr:    0.0000
     atom:   24    charge:    0.8151    magn:   -0.0012    constr:    0.0000
     atom:   25    charge:    1.5923    magn:   -0.0395    constr:    0.0000
     atom:   26    charge:    0.8236    magn:    0.0067    constr:    0.0000
     atom:   27    charge:    0.8174    magn:    0.0003    constr:    0.0000
     atom:   28    charge:    0.8202    magn:   -0.0000    constr:    0.0000
     atom:   29    charge:    0.8183    magn:    0.0000    constr:    0.0000
     atom:   30    charge:    0.8173    magn:    0.0000    constr:    0.0000
     atom:   31    charge:    0.8174    magn:   -0.0004    constr:    0.0000
     atom:   32    charge:    0.8151    magn:   -0.0012    constr:    0.0000
     atom:   33    charge:    0.8308    magn:    0.0020    constr:    0.0000
     atom:   34    charge:    0.8105    magn:    0.0025    constr:    0.0000
     atom:   35    charge:    0.8171    magn:    0.0005    constr:    0.0000
     atom:   36    charge:    0.8179    magn:    0.0002    constr:    0.0000
     atom:   37    charge:    0.8172    magn:    0.0000    constr:    0.0000
     atom:   38    charge:    0.8173    magn:    0.0000    constr:    0.0000
     atom:   39    charge:    0.8154    magn:    0.0001    constr:    0.0000
     atom:   40    charge:    0.8239    magn:   -0.0001    constr:    0.0000
     atom:   41    charge:    0.8214    magn:   -0.0004    constr:    0.0000
     atom:   42    charge:    0.8182    magn:    0.0001    constr:    0.0000
     atom:   43    charge:    0.8195    magn:   -0.0000    constr:    0.0000
     atom:   44    charge:    0.8179    magn:    0.0002    constr:    0.0000
     atom:   45    charge:    0.8183    magn:    0.0000    constr:    0.0000
     atom:   46    charge:    0.8187    magn:    0.0000    constr:    0.0000
     atom:   47    charge:    0.8224    magn:   -0.0001    constr:    0.0000
     atom:   48    charge:    0.8230    magn:   -0.0000    constr:    0.0000
     atom:   49    charge:    0.8240    magn:   -0.0001    constr:    0.0000
     atom:   50    charge:    2.7384    magn:    0.0003    constr:    0.0000
     atom:   51    charge:    2.7365    magn:   -0.0001    constr:    0.0000
     atom:   52    charge:    2.7285    magn:    0.0023    constr:    0.0000
     atom:   53    charge:    2.7331    magn:   -0.0000    constr:    0.0000
     atom:   54    charge:    2.7351    magn:    0.0001    constr:    0.0000
     atom:   55    charge:    2.7331    magn:    0.0000    constr:    0.0000
     atom:   56    charge:    2.7362    magn:   -0.0001    constr:    0.0000
     atom:   57    charge:    2.7345    magn:    0.0002    constr:    0.0000
     atom:   58    charge:    2.7327    magn:    0.0033    constr:    0.0000
     atom:   59    charge:    2.7277    magn:    0.0064    constr:    0.0000
     atom:   60    charge:    2.7239    magn:    0.0114    constr:    0.0000
     atom:   61    charge:    2.7352    magn:    0.0009    constr:    0.0000
     atom:   62    charge:    2.7308    magn:    0.0000    constr:    0.0000
     atom:   63    charge:    2.7331    magn:    0.0001    constr:    0.0000
     atom:   64    charge:    2.7358    magn:   -0.0001    constr:    0.0000
     atom:   65    charge:    2.7352    magn:    0.0003    constr:    0.0000
     atom:   66    charge:    2.7336    magn:    0.0153    constr:    0.0000
     atom:   67    charge:    1.6274    magn:    0.1303    constr:    0.0000
     atom:   68    charge:    2.7443    magn:   -0.0027    constr:    0.0000
     atom:   69    charge:    2.7352    magn:    0.0008    constr:    0.0000
     atom:   70    charge:    2.7351    magn:    0.0001    constr:    0.0000
     atom:   71    charge:    2.7325    magn:   -0.0000    constr:    0.0000
     atom:   72    charge:    2.7307    magn:    0.0001    constr:    0.0000
     atom:   73    charge:    2.7278    magn:    0.0008    constr:    0.0000
     atom:   74    charge:    2.7110    magn:   -0.0046    constr:    0.0000
     atom:   75    charge:    1.6274    magn:    0.1300    constr:    0.0000
     atom:   76    charge:    2.7239    magn:    0.0112    constr:    0.0000
     atom:   77    charge:    2.7331    magn:   -0.0001    constr:    0.0000
     atom:   78    charge:    2.7310    magn:   -0.0000    constr:    0.0000
     atom:   79    charge:    2.7307    magn:    0.0000    constr:    0.0000
     atom:   80    charge:    2.7304    magn:   -0.0001    constr:    0.0000
     atom:   81    charge:    2.7278    magn:    0.0009    constr:    0.0000
     atom:   82    charge:    2.7336    magn:    0.0153    constr:    0.0000
     atom:   83    charge:    2.7278    magn:    0.0064    constr:    0.0000
     atom:   84    charge:    2.7285    magn:    0.0022    constr:    0.0000
     atom:   85    charge:    2.7326    magn:    0.0003    constr:    0.0000
     atom:   86    charge:    2.7302    magn:   -0.0002    constr:    0.0000
     atom:   87    charge:    2.7307    magn:   -0.0001    constr:    0.0000
     atom:   88    charge:    2.7307    magn:    0.0002    constr:    0.0000
     atom:   89    charge:    2.7353    magn:    0.0002    constr:    0.0000
     atom:   90    charge:    2.7327    magn:    0.0034    constr:    0.0000
     atom:   91    charge:    2.7365    magn:   -0.0001    constr:    0.0000
     atom:   92    charge:    2.7387    magn:   -0.0001    constr:    0.0000
     atom:   93    charge:    2.7326    magn:    0.0002    constr:    0.0000
     atom:   94    charge:    2.7310    magn:    0.0000    constr:    0.0000
     atom:   95    charge:    2.7326    magn:   -0.0001    constr:    0.0000
     atom:   96    charge:    2.7358    magn:   -0.0000    constr:    0.0000
     atom:   97    charge:    2.7346    magn:    0.0003    constr:    0.0000
     atom:   98    charge:    2.7384    magn:    0.0004    constr:    0.0000

     total cpu time spent up to now is     4709.0 secs

     End of self-consistent calculation

 ------ SPIN UP ------------


          k = 0.0000 0.0000 0.0000 ( 63298 PWs)   bands (ev):

   -25.0680 -24.8313 -24.6408 -24.6321 -24.6119 -24.5595 -24.5051 -24.0387
   -23.8254 -23.8081 -23.8077 -23.7168 -23.7029 -23.5631 -23.4331 -23.4226
   -23.4075 -23.2630 -23.2486 -22.6459 -22.4402 -22.4353 -22.4302 -22.4200
   -22.4182 -22.4140 -22.4107 -22.3841 -22.3666 -22.1897 -22.1815 -22.0312
   -21.9745 -21.9724 -21.9504 -21.7616 -21.7582 -21.5045 -21.4886 -21.4792
   -21.4673 -21.3976 -21.3851 -21.3169 -21.2949 -21.2925 -21.2812 -19.9520
   -17.8422 -15.4680 -15.0555 -15.0520 -15.0394 -15.0027 -14.9939 -14.9167
   -14.8313 -14.7978 -14.7974 -14.7446 -14.6843 -14.3879 -14.3029 -14.2936
   -14.2628 -14.2130 -14.1899 -13.6994 -13.5707 -13.5514 -13.5285 -13.5185
   -13.5095 -13.5018 -13.4984 -13.4653 -13.4418 -13.2523 -13.1830 -12.9587
   -12.7729 -12.7596 -12.7356 -12.7235 -12.5647 -12.0549 -12.0229 -11.9894
   -11.9100 -11.8634 -11.7967 -11.3299 -11.2611 -11.2564 -11.2314 -11.2040
   -11.1965 -11.1361 -10.9335 -10.8102 -10.7990 -10.7671 -10.7588 -10.7562
   -10.7510 -10.7486 -10.7369 -10.7221 -10.6965 -10.6916 -10.6847 -10.6838
   -10.6815 -10.6767 -10.6587 -10.6217 -10.6212 -10.5754 -10.5433 -10.5240
   -10.3299 -10.3282 -10.0128 -10.0053 -10.0047  -9.9640  -9.9119  -9.6583
    -9.6493  -9.5374  -9.5224  -9.5215  -9.4434  -9.4411  -9.2833  -9.2240
    -9.2239  -9.1851  -9.1672  -9.1574  -9.1298  -9.1195  -9.0902  -9.0772
    -8.9940  -8.9840  -8.9765  -8.9601  -8.9451  -8.8900  -8.8561  -8.7291
    -8.6841  -8.6499  -8.6276  -8.4750  -8.3010  -8.1836  -7.7729  -7.7493
    -7.7428  -7.7084  -7.7004  -7.5131  -7.5098  -7.5064  -7.4994  -7.4899
    -7.4872  -7.4845  -7.4681  -7.4465  -7.3727  -7.3296  -7.2566  -7.2356
    -6.8945  -6.8173  -6.8143  -6.7981  -6.7254  -6.6576  -6.6383  -6.6058
    -6.0801  -6.0500  -6.0362  -6.0301  -5.9592  -5.9138  -5.7765  -5.7440
    -5.7404  -5.7326  -5.5751  -4.6399   0.2770   0.6367   0.8206   0.8859
     0.9132   0.9142   0.9192   0.9283   0.9369   0.9696   1.2706   1.2716
     1.2765   1.2841   1.2926   1.3368   1.4590   1.4597   1.4650   1.4733
     1.4825   1.5141   1.7064   1.7110   1.7155   1.7297   1.7325   1.8230
     1.9111   1.9240   1.9416   1.9756   1.9808   1.9888   2.1657   2.2163
     2.2188   2.2196   2.2258   2.2312   2.2374   2.2384   2.2484   2.2590
     2.2701   2.2766   2.3143   2.5293   2.5369

 ------ SPIN DOWN ----------


          k = 0.0000 0.0000 0.0000 ( 63298 PWs)   bands (ev):

   -25.0607 -24.8270 -24.6377 -24.6300 -24.6109 -24.5478 -24.4935 -24.0358
   -23.8199 -23.8041 -23.7981 -23.7096 -23.6968 -23.5619 -23.4242 -23.4147
   -23.4028 -23.2453 -23.2341 -22.6363 -22.4341 -22.4331 -22.4273 -22.4159
   -22.4125 -22.4058 -22.4040 -22.3684 -22.3603 -22.1809 -22.1749 -22.0245
   -21.9682 -21.9671 -21.9440 -21.7472 -21.7440 -21.4948 -21.4836 -21.4713
   -21.4620 -21.3921 -21.3743 -21.3145 -21.2901 -21.2877 -21.2754 -19.7365
   -17.3815 -15.4097 -15.0534 -15.0470 -15.0365 -14.9978 -14.9912 -14.9121
   -14.8291 -14.7928 -14.7926 -14.7230 -14.6730 -14.3812 -14.3008 -14.2906
   -14.2567 -14.1961 -14.1789 -13.6855 -13.5642 -13.5461 -13.5267 -13.5170
   -13.5073 -13.4982 -13.4972 -13.4539 -13.4272 -13.2054 -13.1487 -12.9533
   -12.7707 -12.7575 -12.7244 -12.7174 -12.5481 -12.0504 -12.0180 -11.9827
   -11.8962 -11.8442 -11.7760 -11.3272 -11.2510 -11.2295 -11.2261 -11.1983
   -11.1938 -11.1309 -10.9308 -10.8044 -10.7946 -10.7641 -10.7572 -10.7489
   -10.7446 -10.7342 -10.7203 -10.7180 -10.6949 -10.6890 -10.6803 -10.6771
   -10.6760 -10.6697 -10.6551 -10.6049 -10.5786 -10.5286 -10.5014 -10.4646
   -10.3146 -10.2870 -10.0113 -10.0034 -10.0022  -9.9408  -9.9019  -9.6389
    -9.6223  -9.5216  -9.5083  -9.4953  -9.3989  -9.3790  -9.2753  -9.2228
    -9.2200  -9.1826  -9.1659  -9.1565  -9.1287  -9.1175  -9.0804  -9.0747
    -8.9849  -8.9571  -8.9526  -8.9423  -8.9223  -8.7720  -8.7698  -8.7060
    -8.6821  -8.6491  -8.6126  -8.4411  -8.2758  -8.1481  -7.7695  -7.7473
    -7.7398  -7.6836  -7.6817  -7.5021  -7.4941  -7.4926  -7.4826  -7.4782
    -7.4687  -7.4522  -7.4150  -7.4111  -7.3472  -7.2194  -7.2104  -7.1589
    -6.8685  -6.7963  -6.7918  -6.7720  -6.5804  -6.5738  -6.5696  -6.4994
    -6.0446  -6.0267  -6.0093  -6.0065  -5.8882  -5.8869  -5.7672  -5.7252
    -5.7206  -5.7102  -5.1745  -2.2579   0.2772   0.6383   0.8205   0.9129
     0.9138   0.9188   0.9274   0.9372   0.9736   1.0665   1.2704   1.2713
     1.2761   1.2833   1.2928   1.3583   1.4586   1.4593   1.4645   1.4723
     1.4830   1.5199   1.7131   1.7190   1.7320   1.7615   1.7630   1.8311
     1.9133   1.9306   1.9567   1.9811   2.0138   2.0670   2.1834   2.2157
     2.2181   2.2191   2.2251   2.2338   2.2400   2.2641   2.2720   2.2876
     2.2973   2.3154   2.3787   2.5232   2.5301

     highest occupied, lowest unoccupied level (ev):    -4.6399   -2.2579

!    total energy              =   -1715.80017915 Ry
     Harris-Foulkes estimate   =   -1715.80017852 Ry
     estimated scf accuracy    <       0.00000033 Ry

     total magnetization       =     1.00 Bohr mag/cell
     absolute magnetization    =     1.32 Bohr mag/cell

     convergence has been achieved in   9 iterations

     Using ACE for calculation of exact exchange

     total energy              =   -1715.84439005 Ry
     Harris-Foulkes estimate   =   -1715.84438943 Ry
     est. exchange err (dexx)  =       0.04421091 Ry
     - averaged Fock potential =     193.96131279 Ry
     + Fock energy (ACE)       =     -97.06228449 Ry

     EXX: now go back to refine exchange calculation

     total cpu time spent up to now is     8907.1 secs

     Self-consistent Calculation

     iteration #  1     ecut=    35.00 Ry     beta= 0.70
     CG style diagonalization
     ethr =  2.14E-09,  avg # of iterations = 13.5

     negative rho (up, down):  1.197E+00 5.522E-03

     total cpu time spent up to now is     8983.4 secs

     total energy              =   -1715.85076325 Ry
     Harris-Foulkes estimate   =   -1715.85136268 Ry
     estimated scf accuracy    <       0.00141326 Ry

     total magnetization       =     1.00 Bohr mag/cell
     absolute magnetization    =     1.36 Bohr mag/cell

     iteration #  2     ecut=    35.00 Ry     beta= 0.70
     CG style diagonalization
     ethr =  3.61E-07,  avg # of iterations =  3.5

     negative rho (up, down):  1.200E+00 5.550E-03

     total cpu time spent up to now is     9000.1 secs

     total energy              =   -1715.85093935 Ry
     Harris-Foulkes estimate   =   -1715.85094889 Ry
     estimated scf accuracy    <       0.00008322 Ry

     total magnetization       =     1.00 Bohr mag/cell
     absolute magnetization    =     1.36 Bohr mag/cell

     iteration #  3     ecut=    35.00 Ry     beta= 0.70
     CG style diagonalization
     ethr =  2.13E-08,  avg # of iterations =  3.8

     negative rho (up, down):  1.200E+00 5.569E-03

     total cpu time spent up to now is     9018.1 secs

     total energy              =   -1715.85096567 Ry
     Harris-Foulkes estimate   =   -1715.85096329 Ry
     estimated scf accuracy    <       0.00001567 Ry

     total magnetization       =     1.00 Bohr mag/cell
     absolute magnetization    =     1.36 Bohr mag/cell

     iteration #  4     ecut=    35.00 Ry     beta= 0.70
     CG style diagonalization
     ethr =  4.01E-09,  avg # of iterations =  3.6

     negative rho (up, down):  1.201E+00 5.568E-03
 
     Magnetic moment per site:
     atom:    1    charge:    0.8209    magn:   -0.0000    constr:    0.0000
     atom:    2    charge:    0.8150    magn:    0.0002    constr:    0.0000
     atom:    3    charge:    0.8139    magn:    0.0004    constr:    0.0000
     atom:    4    charge:    0.8170    magn:   -0.0001    constr:    0.0000
     atom:    5    charge:    0.8188    magn:    0.0000    constr:    0.0000
     atom:    6    charge:    0.8198    magn:    0.0000    constr:    0.0000
     atom:    7    charge:    0.8207    magn:   -0.0000    constr:    0.0000
     atom:    8    charge:    0.8198    magn:   -0.0000    constr:    0.0000
     atom:    9    charge:    0.8182    magn:   -0.0004    constr:    0.0000
     atom:   10    charge:    0.8073    magn:    0.0022    constr:    0.0000
     atom:   11    charge:    0.8142    magn:    0.0002    constr:    0.0000
     atom:   12    charge:    0.8183    magn:    0.0000    constr:    0.0000
     atom:   13    charge:    0.8178    magn:   -0.0000    constr:    0.0000
     atom:   14    charge:    0.8198    magn:    0.0000    constr:    0.0000
     atom:   15    charge:    0.8192    magn:   -0.0001    constr:    0.0000
     atom:   16    charge:    0.8207    magn:   -0.0001    constr:    0.0000
     atom:   17    charge:    0.8280    magn:    0.0017    constr:    0.0000
     atom:   18    charge:    0.8207    magn:    0.0062    constr:    0.0000
     atom:   19    charge:    0.8287    magn:   -0.0004    constr:    0.0000
     atom:   20    charge:    0.8183    magn:    0.0000    constr:    0.0000
     atom:   21    charge:    0.8188    magn:    0.0000    constr:    0.0000
     atom:   22    charge:    0.8155    magn:    0.0000    constr:    0.0000
     atom:   23    charge:    0.8122    magn:    0.0001    constr:    0.0000
     atom:   24    charge:    0.8119    magn:   -0.0014    constr:    0.0000
     atom:   25    charge:    1.5889    magn:   -0.0472    constr:    0.0000
     atom:   26    charge:    0.8207    magn:    0.0062    constr:    0.0000
     atom:   27    charge:    0.8142    magn:    0.0002    constr:    0.0000
     atom:   28    charge:    0.8170    magn:   -0.0000    constr:    0.0000
     atom:   29    charge:    0.8151    magn:    0.0000    constr:    0.0000
     atom:   30    charge:    0.8141    magn:   -0.0000    constr:    0.0000
     atom:   31    charge:    0.8142    magn:   -0.0004    constr:    0.0000
     atom:   32    charge:    0.8119    magn:   -0.0014    constr:    0.0000
     atom:   33    charge:    0.8280    magn:    0.0018    constr:    0.0000
     atom:   34    charge:    0.8073    magn:    0.0022    constr:    0.0000
     atom:   35    charge:    0.8139    magn:    0.0004    constr:    0.0000
     atom:   36    charge:    0.8147    magn:    0.0002    constr:    0.0000
     atom:   37    charge:    0.8140    magn:    0.0000    constr:    0.0000
     atom:   38    charge:    0.8141    magn:    0.0000    constr:    0.0000
     atom:   39    charge:    0.8122    magn:    0.0001    constr:    0.0000
     atom:   40    charge:    0.8207    magn:   -0.0002    constr:    0.0000
     atom:   41    charge:    0.8182    magn:   -0.0004    constr:    0.0000
     atom:   42    charge:    0.8150    magn:    0.0001    constr:    0.0000
     atom:   43    charge:    0.8163    magn:   -0.0000    constr:    0.0000
     atom:   44    charge:    0.8147    magn:    0.0001    constr:    0.0000
     atom:   45    charge:    0.8151    magn:    0.0000    constr:    0.0000
     atom:   46    charge:    0.8155    magn:    0.0000    constr:    0.0000
     atom:   47    charge:    0.8192    magn:   -0.0001    constr:    0.0000
     atom:   48    charge:    0.8198    magn:   -0.0000    constr:    0.0000
     atom:   49    charge:    0.8209    magn:   -0.0001    constr:    0.0000
     atom:   50    charge:    2.7371    magn:    0.0003    constr:    0.0000
     atom:   51    charge:    2.7352    magn:   -0.0001    constr:    0.0000
     atom:   52    charge:    2.7272    magn:    0.0020    constr:    0.0000
     atom:   53    charge:    2.7318    magn:    0.0000    constr:    0.0000
     atom:   54    charge:    2.7338    magn:    0.0001    constr:    0.0000
     atom:   55    charge:    2.7318    magn:    0.0000    constr:    0.0000
     atom:   56    charge:    2.7349    magn:   -0.0001    constr:    0.0000
     atom:   57    charge:    2.7332    magn:    0.0002    constr:    0.0000
     atom:   58    charge:    2.7314    magn:    0.0030    constr:    0.0000
     atom:   59    charge:    2.7264    magn:    0.0064    constr:    0.0000
     atom:   60    charge:    2.7225    magn:    0.0108    constr:    0.0000
     atom:   61    charge:    2.7339    magn:    0.0008    constr:    0.0000
     atom:   62    charge:    2.7295    magn:    0.0000    constr:    0.0000
     atom:   63    charge:    2.7318    magn:    0.0000    constr:    0.0000
     atom:   64    charge:    2.7345    magn:   -0.0000    constr:    0.0000
     atom:   65    charge:    2.7340    magn:    0.0003    constr:    0.0000
     atom:   66    charge:    2.7322    magn:    0.0148    constr:    0.0000
     atom:   67    charge:    1.6262    magn:    0.1357    constr:    0.0000
     atom:   68    charge:    2.7430    magn:   -0.0024    constr:    0.0000
     atom:   69    charge:    2.7339    magn:    0.0007    constr:    0.0000
     atom:   70    charge:    2.7339    magn:    0.0001    constr:    0.0000
     atom:   71    charge:    2.7313    magn:    0.0000    constr:    0.0000
     atom:   72    charge:    2.7294    magn:    0.0001    constr:    0.0000
     atom:   73    charge:    2.7265    magn:    0.0007    constr:    0.0000
     atom:   74    charge:    2.7095    magn:   -0.0052    constr:    0.0000
     atom:   75    charge:    1.6262    magn:    0.1355    constr:    0.0000
     atom:   76    charge:    2.7225    magn:    0.0107    constr:    0.0000
     atom:   77    charge:    2.7318    magn:   -0.0000    constr:    0.0000
     atom:   78    charge:    2.7297    magn:   -0.0000    constr:    0.0000
     atom:   79    charge:    2.7294    magn:   -0.0000    constr:    0.0000
     atom:   80    charge:    2.7291    magn:   -0.0001    constr:    0.0000
     atom:   81    charge:    2.7265    magn:    0.0007    constr:    0.0000
     atom:   82    charge:    2.7322    magn:    0.0148    constr:    0.0000
     atom:   83    charge:    2.7264    magn:    0.0064    constr:    0.0000
     atom:   84    charge:    2.7272    magn:    0.0019    constr:    0.0000
     atom:   85    charge:    2.7313    magn:    0.0002    constr:    0.0000
     atom:   86    charge:    2.7289    magn:   -0.0001    constr:    0.0000
     atom:   87    charge:    2.7294    magn:   -0.0000    constr:    0.0000
     atom:   88    charge:    2.7295    magn:    0.0002    constr:    0.0000
     atom:   89    charge:    2.7340    magn:    0.0002    constr:    0.0000
     atom:   90    charge:    2.7314    magn:    0.0030    constr:    0.0000
     atom:   91    charge:    2.7352    magn:   -0.0001    constr:    0.0000
     atom:   92    charge:    2.7374    magn:   -0.0000    constr:    0.0000
     atom:   93    charge:    2.7313    magn:    0.0002    constr:    0.0000
     atom:   94    charge:    2.7297    magn:    0.0000    constr:    0.0000
     atom:   95    charge:    2.7313    magn:   -0.0001    constr:    0.0000
     atom:   96    charge:    2.7345    magn:   -0.0000    constr:    0.0000
     atom:   97    charge:    2.7333    magn:    0.0002    constr:    0.0000
     atom:   98    charge:    2.7371    magn:    0.0004    constr:    0.0000

     total cpu time spent up to now is     9035.3 secs

     End of self-consistent calculation

 ------ SPIN UP ------------


          k = 0.0000 0.0000 0.0000 ( 63298 PWs)   bands (ev):

   -25.0683 -24.8313 -24.6411 -24.6329 -24.6128 -24.5603 -24.5064 -24.0393
   -23.8259 -23.8092 -23.8082 -23.7183 -23.7042 -23.5644 -23.4340 -23.4234
   -23.4097 -23.2647 -23.2507 -22.6471 -22.4416 -22.4369 -22.4316 -22.4214
   -22.4200 -22.4159 -22.4123 -22.3857 -22.3693 -22.1921 -22.1839 -22.0332
   -21.9766 -21.9744 -21.9535 -21.7637 -21.7610 -21.5071 -21.4907 -21.4819
   -21.4701 -21.4002 -21.3879 -21.3197 -21.2975 -21.2955 -21.2843 -19.9643
   -17.8723 -15.4757 -15.0596 -15.0564 -15.0437 -15.0074 -14.9985 -14.9209
   -14.8350 -14.8017 -14.8016 -14.7490 -14.6896 -14.3964 -14.3129 -14.3038
   -14.2728 -14.2234 -14.2000 -13.7073 -13.5783 -13.5583 -13.5353 -13.5251
   -13.5166 -13.5091 -13.5056 -13.4737 -13.4493 -13.2612 -13.1928 -12.9656
   -12.7785 -12.7650 -12.7425 -12.7301 -12.5715 -12.0641 -12.0318 -11.9987
   -11.9194 -11.8734 -11.8075 -11.3447 -11.2764 -11.2571 -11.2465 -11.2190
   -11.2111 -11.1512 -10.9485 -10.8250 -10.8144 -10.7806 -10.7717 -10.7649
   -10.7625 -10.7551 -10.7514 -10.7372 -10.7118 -10.7068 -10.6994 -10.6971
   -10.6853 -10.6779 -10.6599 -10.6367 -10.6227 -10.5787 -10.5610 -10.5398
   -10.3482 -10.3462 -10.0349 -10.0277 -10.0269  -9.9868  -9.9351  -9.6812
    -9.6492  -9.5395  -9.5252  -9.5249  -9.4480  -9.4457  -9.3042  -9.2442
    -9.2437  -9.2060  -9.1877  -9.1785  -9.1524  -9.1423  -9.1006  -9.0937
    -9.0164  -8.9888  -8.9810  -8.9695  -8.9665  -8.8974  -8.8636  -8.7516
    -8.7026  -8.6687  -8.6476  -8.4957  -8.3236  -8.2094  -7.7990  -7.7750
    -7.7688  -7.7279  -7.7155  -7.5257  -7.5224  -7.5188  -7.5119  -7.5029
    -7.5002  -7.4977  -7.4817  -7.4614  -7.4017  -7.3453  -7.2866  -7.2530
    -6.9131  -6.8377  -6.8352  -6.8199  -6.7476  -6.6924  -6.6724  -6.6305
    -6.1099  -6.0805  -6.0669  -6.0610  -5.9916  -5.9468  -5.8112  -5.7794
    -5.7755  -5.7677  -5.6147  -4.7085   0.2772   0.6354   0.8215   0.9132
     0.9142   0.9192   0.9280   0.9335   0.9363   0.9681   1.2684   1.2693
     1.2742   1.2816   1.2898   1.3358   1.4596   1.4602   1.4655   1.4736
     1.4826   1.5135   1.7433   1.7478   1.7519   1.7644   1.7669   1.8617
     1.9106   1.9674   1.9839   2.0173   2.0198   2.0293   2.1933   2.2154
     2.2177   2.2186   2.2247   2.2297   2.2371   2.2613   2.2710   2.2710
     2.2823   2.3015   2.3368   2.5278   2.5335

 ------ SPIN DOWN ----------


          k = 0.0000 0.0000 0.0000 ( 63298 PWs)   bands (ev):

   -25.0630 -24.8311 -24.6384 -24.6312 -24.6120 -24.5497 -24.4962 -24.0391
   -23.8212 -23.8059 -23.7997 -23.7115 -23.6987 -23.5640 -23.4257 -23.4164
   -23.4054 -23.2476 -23.2370 -22.6397 -22.4361 -22.4350 -22.4294 -22.4180
   -22.4150 -22.4080 -22.4066 -22.3714 -22.3637 -22.1839 -22.1775 -22.0275
   -21.9709 -21.9699 -21.9478 -21.7500 -21.7473 -21.4982 -21.4866 -21.4748
   -21.4654 -21.3951 -21.3780 -21.3178 -21.2933 -21.2912 -21.2793 -19.7465
   -17.3779 -15.4172 -15.0580 -15.0516 -15.0413 -15.0025 -14.9959 -14.9165
   -14.8332 -14.7972 -14.7968 -14.7268 -14.6783 -14.3902 -14.3110 -14.3010
   -14.2668 -14.2056 -14.1889 -13.6936 -13.5728 -13.5535 -13.5338 -13.5239
   -13.5147 -13.5061 -13.5047 -13.4628 -13.4347 -13.2119 -13.1563 -12.9611
   -12.7765 -12.7632 -12.7317 -12.7241 -12.5550 -12.0603 -12.0276 -11.9924
   -11.9053 -11.8537 -11.7857 -11.3426 -11.2666 -11.2416 -11.2313 -11.2133
   -11.2086 -11.1460 -10.9466 -10.8194 -10.8106 -10.7779 -10.7705 -10.7631
   -10.7590 -10.7490 -10.7356 -10.7233 -10.7105 -10.7044 -10.6963 -10.6930
   -10.6779 -10.6722 -10.6572 -10.6197 -10.5827 -10.5461 -10.5163 -10.4684
   -10.3321 -10.3026 -10.0335 -10.0258 -10.0247  -9.9631  -9.9252  -9.6611
    -9.6325  -9.5261  -9.5137  -9.5016  -9.4037  -9.3832  -9.2966  -9.2429
    -9.2404  -9.2035  -9.1865  -9.1777  -9.1515  -9.1407  -9.0984  -9.0896
    -9.0074  -8.9645  -8.9603  -8.9504  -8.9458  -8.7773  -8.7759  -8.7276
    -8.7010  -8.6682  -8.6335  -8.4604  -8.2970  -8.1721  -7.7959  -7.7731
    -7.7661  -7.7113  -7.7047  -7.5164  -7.5089  -7.5078  -7.4971  -7.4941
    -7.4842  -7.4687  -7.4347  -7.4324  -7.3746  -7.2471  -7.2263  -7.1766
    -6.8929  -6.8215  -6.8157  -6.7980  -6.6046  -6.6022  -6.6002  -6.5236
    -6.0800  -6.0623  -6.0439  -6.0410  -5.9228  -5.9209  -5.8049  -5.7637
    -5.7591  -5.7497  -5.2025  -2.1602   0.2773   0.6359   0.8214   0.9129
     0.9138   0.9188   0.9270   0.9365   0.9720   1.0768   1.2682   1.2690
     1.2738   1.2807   1.2901   1.3594   1.4591   1.4597   1.4650   1.4725
     1.4830   1.5194   1.7474   1.7541   1.7666   1.7961   1.7984   1.8670
     1.9136   1.9717   1.9973   2.0217   2.0526   2.1009   2.2081   2.2147
     2.2170   2.2180   2.2239   2.2323   2.2388   2.2727   2.2879   2.3114
     2.3214   2.3377   2.4018   2.5218   2.5282

     highest occupied, lowest unoccupied level (ev):    -4.7085   -2.1602

!    total energy              =   -1715.85097158 Ry
     Harris-Foulkes estimate   =   -1715.85096974 Ry
     estimated scf accuracy    <       0.00000091 Ry

     total magnetization       =     1.00 Bohr mag/cell
     absolute magnetization    =     1.36 Bohr mag/cell

     convergence has been achieved in   4 iterations

[...]
   -21.4609 -21.3906 -21.3737 -21.3131 -21.2889 -21.2866 -21.2750 -19.7382
   -17.3606 -15.4123 -15.0542 -15.0476 -15.0376 -14.9984 -14.9919 -14.9125
   -14.8289 -14.7932 -14.7925 -14.7222 -14.6745 -14.3872 -14.3084 -14.2986
   -14.2641 -14.2024 -14.1860 -13.6896 -13.5691 -13.5497 -13.5303 -13.5204
   -13.5113 -13.5028 -13.5014 -13.4595 -13.4307 -13.2065 -13.1521 -12.9578
   -12.7724 -12.7592 -12.7278 -12.7202 -12.5512 -12.0567 -12.0244 -11.9889
   -11.9017 -11.8497 -11.7820 -11.3404 -11.2647 -11.2395 -11.2282 -11.2112
   -11.2067 -11.1441 -10.9442 -10.8168 -10.8089 -10.7755 -10.7680 -10.7609
   -10.7569 -10.7469 -10.7337 -10.7220 -10.7089 -10.7026 -10.6945 -10.6913
   -10.6748 -10.6692 -10.6542 -10.6170 -10.5806 -10.5441 -10.5138 -10.4661
   -10.3305 -10.2997 -10.0330 -10.0255 -10.0243  -9.9621  -9.9249  -9.6604
    -9.6336  -9.5242  -9.5118  -9.5008  -9.4015  -9.3810  -9.2953  -9.2419
    -9.2391  -9.2024  -9.1855  -9.1768  -9.1511  -9.1403  -9.0982  -9.0897
    -9.0068  -8.9642  -8.9602  -8.9493  -8.9449  -8.7757  -8.7745  -8.7257
    -8.6993  -8.6665  -8.6316  -8.4582  -8.2951  -8.1708  -7.7955  -7.7728
    -7.7659  -7.7109  -7.7109  -7.5179  -7.5107  -7.5097  -7.4988  -7.4961
    -7.4864  -7.4716  -7.4376  -7.4374  -7.3738  -7.2463  -7.2285  -7.1787
    -6.8980  -6.8265  -6.8202  -6.8033  -6.6069  -6.6026  -6.5986  -6.5280
    -6.0888  -6.0710  -6.0524  -6.0492  -5.9315  -5.9289  -5.8138  -5.7732
    -5.7687  -5.7597  -5.2072  -2.1074   0.2770   0.6349   0.8213   0.9126
     0.9135   0.9184   0.9265   0.9359   0.9714   1.0752   1.2674   1.2681
     1.2728   1.2797   1.2890   1.3595   1.4590   1.4596   1.4648   1.4722
     1.4827   1.5190   1.7604   1.7674   1.7796   1.8096   1.8119   1.8796
     1.9141   1.9868   2.0123   2.0370   2.0672   2.1144   2.2143   2.2165
     2.2177   2.2175   2.2234   2.2317   2.2383   2.2728   2.2974   2.3211
     2.3315   2.3477   2.4118   2.5212   2.5273

     highest occupied, lowest unoccupied level (ev):    -4.7420   -2.1074

!    total energy              =   -1715.85265043 Ry
     Harris-Foulkes estimate   =   -1715.85264679 Ry
     estimated scf accuracy    <       0.00000061 Ry

     total magnetization       =     1.00 Bohr mag/cell
     absolute magnetization    =     1.40 Bohr mag/cell

     convergence has been achieved in   1 iterations

     Using ACE for calculation of exact exchange

     total energy              =   -1715.85265191 Ry
     Harris-Foulkes estimate   =   -1715.85264827 Ry
     est. exchange err (dexx)  =       0.00000148 Ry
     - averaged Fock potential =     194.25028597 Ry
     + Fock energy (ACE)       =     -97.12596480 Ry

     EXX: now go back to refine exchange calculation

     total cpu time spent up to now is    26189.1 secs

     Self-consistent Calculation

     iteration #  1     ecut=    35.00 Ry     beta= 0.70
     CG style diagonalization
     c_bands:  1 eigenvalues not converged
     ethr =  3.47E-10,  avg # of iterations =  4.0

     negative rho (up, down):  1.205E+00 5.698E-03
 
     Magnetic moment per site:
     atom:    1    charge:    0.8204    magn:   -0.0000    constr:    0.0000
     atom:    2    charge:    0.8145    magn:    0.0002    constr:    0.0000
     atom:    3    charge:    0.8133    magn:    0.0004    constr:    0.0000
     atom:    4    charge:    0.8165    magn:   -0.0000    constr:    0.0000
     atom:    5    charge:    0.8183    magn:    0.0000    constr:    0.0000
     atom:    6    charge:    0.8192    magn:    0.0000    constr:    0.0000
     atom:    7    charge:    0.8201    magn:   -0.0000    constr:    0.0000
     atom:    8    charge:    0.8193    magn:    0.0000    constr:    0.0000
     atom:    9    charge:    0.8176    magn:   -0.0003    constr:    0.0000
     atom:   10    charge:    0.8068    magn:    0.0021    constr:    0.0000
     atom:   11    charge:    0.8137    magn:    0.0002    constr:    0.0000
     atom:   12    charge:    0.8178    magn:    0.0000    constr:    0.0000
     atom:   13    charge:    0.8173    magn:   -0.0000    constr:    0.0000
     atom:   14    charge:    0.8192    magn:    0.0000    constr:    0.0000
     atom:   15    charge:    0.8187    magn:   -0.0001    constr:    0.0000
     atom:   16    charge:    0.8201    magn:   -0.0001    constr:    0.0000
     atom:   17    charge:    0.8275    magn:    0.0015    constr:    0.0000
     atom:   18    charge:    0.8202    magn:    0.0058    constr:    0.0000
     atom:   19    charge:    0.8282    magn:   -0.0004    constr:    0.0000
     atom:   20    charge:    0.8178    magn:    0.0000    constr:    0.0000
     atom:   21    charge:    0.8183    magn:    0.0000    constr:    0.0000
     atom:   22    charge:    0.8150    magn:    0.0000    constr:    0.0000
     atom:   23    charge:    0.8117    magn:    0.0001    constr:    0.0000
     atom:   24    charge:    0.8114    magn:   -0.0015    constr:    0.0000
     atom:   25    charge:    1.5886    magn:   -0.0550    constr:    0.0000
     atom:   26    charge:    0.8202    magn:    0.0058    constr:    0.0000
     atom:   27    charge:    0.8137    magn:    0.0002    constr:    0.0000
     atom:   28    charge:    0.8165    magn:   -0.0000    constr:    0.0000
     atom:   29    charge:    0.8146    magn:    0.0000    constr:    0.0000
     atom:   30    charge:    0.8136    magn:   -0.0000    constr:    0.0000
     atom:   31    charge:    0.8136    magn:   -0.0004    constr:    0.0000
     atom:   32    charge:    0.8114    magn:   -0.0015    constr:    0.0000
     atom:   33    charge:    0.8275    magn:    0.0015    constr:    0.0000
     atom:   34    charge:    0.8068    magn:    0.0021    constr:    0.0000
     atom:   35    charge:    0.8133    magn:    0.0004    constr:    0.0000
     atom:   36    charge:    0.8142    magn:    0.0001    constr:    0.0000
     atom:   37    charge:    0.8135    magn:   -0.0000    constr:    0.0000
     atom:   38    charge:    0.8136    magn:   -0.0000    constr:    0.0000
     atom:   39    charge:    0.8117    magn:    0.0001    constr:    0.0000
     atom:   40    charge:    0.8201    magn:   -0.0001    constr:    0.0000
     atom:   41    charge:    0.8176    magn:   -0.0003    constr:    0.0000
     atom:   42    charge:    0.8145    magn:    0.0002    constr:    0.0000
     atom:   43    charge:    0.8158    magn:   -0.0000    constr:    0.0000
     atom:   44    charge:    0.8142    magn:    0.0001    constr:    0.0000
     atom:   45    charge:    0.8146    magn:    0.0000    constr:    0.0000
     atom:   46    charge:    0.8150    magn:    0.0000    constr:    0.0000
     atom:   47    charge:    0.8187    magn:   -0.0001    constr:    0.0000
     atom:   48    charge:    0.8193    magn:    0.0000    constr:    0.0000
     atom:   49    charge:    0.8204    magn:   -0.0000    constr:    0.0000
     atom:   50    charge:    2.7373    magn:    0.0003    constr:    0.0000
     atom:   51    charge:    2.7354    magn:   -0.0001    constr:    0.0000
     atom:   52    charge:    2.7274    magn:    0.0017    constr:    0.0000
     atom:   53    charge:    2.7320    magn:    0.0000    constr:    0.0000
     atom:   54    charge:    2.7341    magn:    0.0001    constr:    0.0000
     atom:   55    charge:    2.7320    magn:    0.0000    constr:    0.0000
     atom:   56    charge:    2.7351    magn:   -0.0000    constr:    0.0000
     atom:   57    charge:    2.7334    magn:    0.0002    constr:    0.0000
     atom:   58    charge:    2.7316    magn:    0.0027    constr:    0.0000
     atom:   59    charge:    2.7266    magn:    0.0064    constr:    0.0000
     atom:   60    charge:    2.7228    magn:    0.0102    constr:    0.0000
     atom:   61    charge:    2.7341    magn:    0.0007    constr:    0.0000
     atom:   62    charge:    2.7297    magn:   -0.0000    constr:    0.0000
     atom:   63    charge:    2.7320    magn:    0.0000    constr:    0.0000
     atom:   64    charge:    2.7347    magn:    0.0000    constr:    0.0000
     atom:   65    charge:    2.7342    magn:    0.0003    constr:    0.0000
     atom:   66    charge:    2.7326    magn:    0.0143    constr:    0.0000
     atom:   67    charge:    1.6266    magn:    0.1406    constr:    0.0000
     atom:   68    charge:    2.7432    magn:   -0.0017    constr:    0.0000
     atom:   69    charge:    2.7341    magn:    0.0007    constr:    0.0000
     atom:   70    charge:    2.7341    magn:    0.0001    constr:    0.0000
     atom:   71    charge:    2.7315    magn:    0.0000    constr:    0.0000
     atom:   72    charge:    2.7296    magn:    0.0001    constr:    0.0000
     atom:   73    charge:    2.7267    magn:    0.0006    constr:    0.0000
     atom:   74    charge:    2.7096    magn:   -0.0054    constr:    0.0000
     atom:   75    charge:    1.6266    magn:    0.1406    constr:    0.0000
     atom:   76    charge:    2.7228    magn:    0.0102    constr:    0.0000
     atom:   77    charge:    2.7320    magn:    0.0000    constr:    0.0000
     atom:   78    charge:    2.7299    magn:    0.0000    constr:    0.0000
     atom:   79    charge:    2.7296    magn:   -0.0000    constr:    0.0000
     atom:   80    charge:    2.7293    magn:   -0.0001    constr:    0.0000
     atom:   81    charge:    2.7267    magn:    0.0006    constr:    0.0000
     atom:   82    charge:    2.7326    magn:    0.0143    constr:    0.0000
     atom:   83    charge:    2.7266    magn:    0.0064    constr:    0.0000
     atom:   84    charge:    2.7274    magn:    0.0017    constr:    0.0000
     atom:   85    charge:    2.7315    magn:    0.0002    constr:    0.0000
     atom:   86    charge:    2.7291    magn:   -0.0001    constr:    0.0000
     atom:   87    charge:    2.7296    magn:   -0.0000    constr:    0.0000
     atom:   88    charge:    2.7296    magn:    0.0001    constr:    0.0000
     atom:   89    charge:    2.7342    magn:    0.0003    constr:    0.0000
     atom:   90    charge:    2.7316    magn:    0.0027    constr:    0.0000
     atom:   91    charge:    2.7354    magn:   -0.0001    constr:    0.0000
     atom:   92    charge:    2.7376    magn:   -0.0000    constr:    0.0000
     atom:   93    charge:    2.7315    magn:    0.0002    constr:    0.0000
     atom:   94    charge:    2.7299    magn:    0.0000    constr:    0.0000
     atom:   95    charge:    2.7315    magn:    0.0000    constr:    0.0000
     atom:   96    charge:    2.7347    magn:    0.0000    constr:    0.0000
     atom:   97    charge:    2.7334    magn:    0.0002    constr:    0.0000
     atom:   98    charge:    2.7373    magn:    0.0003    constr:    0.0000

     total cpu time spent up to now is    26215.5 secs

     End of self-consistent calculation

 ------ SPIN UP ------------


          k = 0.0000 0.0000 0.0000 ( 63298 PWs)   bands (ev):

   -25.0607 -24.8220 -24.6352 -24.6271 -24.6071 -24.5545 -24.5000 -24.0316
   -23.8202 -23.8036 -23.8023 -23.7124 -23.6984 -23.5583 -23.4280 -23.4175
   -23.4044 -23.2588 -23.2448 -22.6404 -22.4358 -22.4313 -22.4259 -22.4154
   -22.4143 -22.4104 -22.4066 -22.3797 -22.3639 -22.1864 -22.1784 -22.0274
   -21.9709 -21.9687 -21.9482 -21.7578 -21.7553 -21.5013 -21.4850 -21.4762
   -21.4644 -21.3946 -21.3822 -21.3141 -21.2920 -21.2898 -21.2789 -19.9549
   -17.8760 -15.4686 -15.0550 -15.0517 -15.0392 -15.0028 -14.9938 -14.9161
   -14.8299 -14.7969 -14.7968 -14.7442 -14.6852 -14.3926 -14.3095 -14.3006
   -14.2696 -14.2201 -14.1965 -13.7025 -13.5732 -13.5535 -13.5309 -13.5208
   -13.5124 -13.5049 -13.5015 -13.4695 -13.4449 -13.2573 -13.1892 -12.9608
   -12.7737 -12.7602 -12.7377 -12.7257 -12.5670 -12.0595 -12.0273 -11.9943
   -11.9153 -11.8694 -11.8039 -11.3415 -11.2734 -11.2522 -11.2435 -11.2165
   -11.2084 -11.1486 -10.9451 -10.8215 -10.8113 -10.7773 -10.7684 -10.7619
   -10.7593 -10.7484 -10.7469 -10.7346 -10.7094 -10.7041 -10.6968 -10.6945
   -10.6811 -10.6739 -10.6560 -10.6336 -10.6188 -10.5743 -10.5585 -10.5370
   -10.3463 -10.3442 -10.0335 -10.0266 -10.0259  -9.9854  -9.9340  -9.6800
    -9.6409  -9.5360  -9.5220  -9.5218  -9.4450  -9.4429  -9.3021  -9.2421
    -9.2417  -9.2041  -9.1859  -9.1770  -9.1512  -9.1410  -9.0995  -9.0887
    -9.0150  -8.9859  -8.9781  -8.9681  -8.9648  -8.8953  -8.8622  -8.7493
    -8.6999  -8.6662  -8.6449  -8.4938  -8.3220  -8.2084  -7.7977  -7.7738
    -7.7678  -7.7268  -7.7097  -7.5259  -7.5224  -7.5190  -7.5120  -7.5031
    -7.5006  -7.4980  -7.4820  -7.4629  -7.4012  -7.3463  -7.2862  -7.2555
    -6.9141  -6.8400  -6.8377  -6.8232  -6.7504  -6.6925  -6.6729  -6.6355
    -6.1146  -6.0861  -6.0728  -6.0669  -5.9981  -5.9539  -5.8182  -5.7871
    -5.7829  -5.7753  -5.6247  -4.7437   0.2768   0.6351   0.8213   0.9129
     0.9138   0.9187   0.9275   0.9357   0.9714   0.9673   1.2675   1.2683
     1.2732   1.2805   1.2887   1.3363   1.4594   1.4600   1.4653   1.4733
     1.4822   1.5131   1.7577   1.7617   1.7658   1.7783   1.7806   1.8763
     1.9105   1.9839   1.9998   2.0328   2.0357   2.0447   2.2048   2.2148
     2.2172   2.2180   2.2242   2.2291   2.2365   2.2711   2.2721   2.2809
     2.2919   2.3116   2.3455   2.5270   2.5324

 ------ SPIN DOWN ----------


          k = 0.0000 0.0000 0.0000 ( 63298 PWs)   bands (ev):

   -25.0572 -24.8254 -24.6327 -24.6256 -24.6063 -24.5446 -24.4909 -24.0337
   -23.8158 -23.8004 -23.7945 -23.7058 -23.6931 -23.5584 -23.4204 -23.4112
   -23.4000 -23.2423 -23.2316 -22.6345 -22.4305 -22.4294 -22.4240 -22.4126
   -22.4096 -22.4026 -22.4015 -22.3664 -22.3585 -22.1786 -22.1722 -22.0221
   -21.9656 -21.9646 -21.9427 -21.7448 -21.7419 -21.4929 -21.4814 -21.4697
   -21.4601 -21.3898 -21.3729 -21.3124 -21.2881 -21.2858 -21.2742 -19.7382
   -17.3597 -15.4120 -15.0536 -15.0470 -15.0369 -14.9979 -14.9913 -14.9120
   -14.8283 -14.7926 -14.7919 -14.7216 -14.6738 -14.3866 -14.3079 -14.2980
   -14.2635 -14.2017 -14.1854 -13.6892 -13.5686 -13.5491 -13.5296 -13.5197
   -13.5107 -13.5021 -13.5007 -13.4588 -13.4301 -13.2058 -13.1514 -12.9571
   -12.7718 -12.7585 -12.7272 -12.7196 -12.5505 -12.0561 -12.0237 -11.9883
   -11.9010 -11.8490 -11.7813 -11.3398 -11.2640 -11.2389 -11.2277 -11.2106
   -11.2060 -11.1434 -10.9436 -10.8162 -10.8083 -10.7748 -10.7673 -10.7602
   -10.7561 -10.7462 -10.7331 -10.7217 -10.7082 -10.7019 -10.6938 -10.6905
   -10.6742 -10.6687 -10.6536 -10.6163 -10.5800 -10.5435 -10.5131 -10.4657
   -10.3298 -10.2989 -10.0323 -10.0248 -10.0236  -9.9613  -9.9242  -9.6596
    -9.6336  -9.5236  -9.5112  -9.5002  -9.4009  -9.3805  -9.2947  -9.2412
    -9.2384  -9.2017  -9.1848  -9.1762  -9.1504  -9.1396  -9.0974  -9.0894
    -9.0060  -8.9636  -8.9596  -8.9486  -8.9442  -8.7752  -8.7739  -8.7251
    -8.6985  -8.6658  -8.6309  -8.4573  -8.2944  -8.1701  -7.7948  -7.7721
    -7.7651  -7.7101  -7.7107  -7.5173  -7.5102  -7.5091  -7.4982  -7.4955
    -7.4858  -7.4710  -7.4370  -7.4368  -7.3731  -7.2455  -7.2280  -7.1781
    -6.8975  -6.8259  -6.8196  -6.8027  -6.6064  -6.6019  -6.5978  -6.5273
    -6.0883  -6.0704  -6.0518  -6.0486  -5.9309  -5.9283  -5.8133  -5.7727
    -5.7681  -5.7591  -5.2073  -2.1046   0.2770   0.6348   0.8212   0.9126
     0.9134   0.9183   0.9265   0.9359   0.9713   1.0742   1.2673   1.2681
     1.2728   1.2796   1.2889   1.3593   1.4590   1.4595   1.4647   1.4722
     1.4827   1.5189   1.7608   1.7678   1.7801   1.8100   1.8123   1.8799
     1.9141   1.9872   2.0127   2.0375   2.0676   2.1148   2.2142   2.2164
     2.2181   2.2175   2.2234   2.2317   2.2382   2.2728   2.2978   2.3215
     2.3318   2.3481   2.4122   2.5211   2.5272

     highest occupied, lowest unoccupied level (ev):    -4.7437   -2.1046

!    total energy              =   -1715.85265312 Ry
     Harris-Foulkes estimate   =   -1715.85265286 Ry
     estimated scf accuracy    <       0.00000027 Ry

     total magnetization       =     1.00 Bohr mag/cell
     absolute magnetization    =     1.40 Bohr mag/cell

     convergence has been achieved in   1 iterations

     Using ACE for calculation of exact exchange

!!   total energy              =   -1715.85265348 Ry
     Harris-Foulkes estimate   =   -1715.85265321 Ry
     est. exchange err (dexx)  =       0.00000036 Ry
     - averaged Fock potential =     194.25127796 Ry
     + Fock energy (ACE)       =     -97.12531352 Ry

     EXX self-consistency reached

     Writing output data file C2Cn.save/
 
     init_run     :      2.31s CPU      2.47s WALL (       1 calls)
     electrons    :    827.11s CPU    840.51s WALL (       7 calls)

     Called by init_run:
     wfcinit      :      1.25s CPU      1.31s WALL (       1 calls)
     potinit      :      0.35s CPU      0.38s WALL (       1 calls)
     hinit0       :      0.41s CPU      0.42s WALL (       1 calls)

     Called by electrons:
     c_bands      :    796.07s CPU    805.91s WALL (      33 calls)
     sum_band     :     11.68s CPU     12.80s WALL (      33 calls)
     v_of_rho     :      3.46s CPU      3.64s WALL (      35 calls)
     newd         :      0.96s CPU      1.09s WALL (      34 calls)
     PAW_pot      :      5.48s CPU      5.67s WALL (      35 calls)
     mix_rho      :      0.27s CPU      0.31s WALL (      33 calls)

     Called by c_bands:
     init_us_2    :     11.93s CPU     12.25s WALL (    3578 calls)
     rcgdiagg     :    771.91s CPU    781.32s WALL (      75 calls)
     wfcrot       :     24.86s CPU     25.21s WALL (      63 calls)

     Called by sum_band:
     sum_band:bec :      0.04s CPU      0.04s WALL (      66 calls)
     addusdens    :      0.86s CPU      1.79s WALL (      33 calls)

     Called by *cgdiagg:
     h_psi        :    466.55s CPU    472.22s WALL (   67372 calls)
     s_psi        :    175.49s CPU    178.08s WALL (  134681 calls)
     rdiaghg      :      1.44s CPU      1.48s WALL (      63 calls)

     Called by h_psi:
     h_psi:pot    :    416.82s CPU    421.67s WALL (   67372 calls)
     h_psi:calbec :    143.88s CPU    145.28s WALL (   67372 calls)
     vloc_psi     :    178.54s CPU    181.06s WALL (   67372 calls)
     add_vuspsi   :     93.48s CPU     94.64s WALL (   67372 calls)
     hs_1psi      :    538.57s CPU    545.10s WALL (   67309 calls)
     s_1psi       :    183.09s CPU    185.24s WALL (   67309 calls)

     General routines
     calbec       :    274.55s CPU    278.04s WALL (  182766 calls)
     fft          :      1.89s CPU      1.96s WALL (     574 calls)
     ffts         :      0.17s CPU      0.17s WALL (      66 calls)
     fftw         :    174.44s CPU    176.88s WALL (  158526 calls)
     fftc         :   3131.84s CPU   3162.59s WALL (  672280 calls)
     fftcw        :      7.65s CPU      8.18s WALL (    6874 calls)
 
     Parallel routines
     fft_scatt_xy :     60.43s CPU     61.36s WALL (  838320 calls)
     fft_scatt_yz :   2555.85s CPU   2577.47s WALL (  838320 calls)

     EXX routines
     exx_grid     :      0.00s CPU      0.00s WALL (       1 calls)
     exxinit      :      3.83s CPU      4.20s WALL (       7 calls)
     vexx         :  29382.22s CPU  29578.99s WALL (      14 calls)
     matcalc      :     31.23s CPU     31.77s WALL (   48005 calls)
     aceupdate    :      0.05s CPU      0.11s WALL (      14 calls)
     vexxace      :     49.62s CPU     50.51s WALL (   47965 calls)
     aceinit      :  29382.48s CPU  29579.38s WALL (      14 calls)

     EXX+US  routines
     becxx        :      0.01s CPU      0.02s WALL (       7 calls)
     addusxx      :  12812.51s CPU  12884.20s WALL (  672280 calls)
     newdxx       :  12261.21s CPU  12342.06s WALL (  672280 calls)
     qvan_init    :      0.12s CPU      0.24s WALL (      14 calls)
     nlxx_pot     :     16.19s CPU     16.54s WALL (    3430 calls)

     EXX+PAW routines
     PAW_newdxx   :   1006.11s CPU   1015.04s WALL (  672280 calls)
 
     PWSCF        :      8h23m CPU      8h27m WALL

 
   This run was terminated on:  15:59:46  22Sep2021            

=------------------------------------------------------------------------------=
   JOB DONE.
=------------------------------------------------------------------------------=
