
     Program PWSCF v.6.4.1 starts on 22Sep2021 at  7:32: 3 

     This program is part of the open-source Quantum ESPRESSO suite
     for quantum simulation of materials; please cite
         "P. Giannozzi et al., J. Phys.:Condens. Matter 21 395502 (2009);
         "P. Giannozzi et al., J. Phys.:Condens. Matter 29 465901 (2017);
          URL http://www.quantum-espresso.org", 
     in publications or presentations arising from this work. More details at
     http://www.quantum-espresso.org/quote

     Parallel version (MPI), running on    64 processors

     MPI processes distributed on     2 nodes
     R & G space division:  proc/nbgrp/npool/nimage =      64
     Waiting for input...
     Reading input from standard input

     Current dimensions of program PWSCF are:
     Max number of different atomic species (ntypx) = 10
     Max number of k-points (npk) =  40000
     Max angular momentum in pseudopotentials (lmaxx) =  3

     IMPORTANT: XC functional enforced from input :
     Exchange-correlation      = HSE ( 1  4 12  4 0 0)
     EXX-fraction              =        0.25
     Using LIBXC version       =    4   3   4
     Any further DFT definition will be discarded
     Please, verify this is what you really want

               file N.pbe-n-kjpaw_psl.1.0.0.UPF: wavefunction(s)  2S renormalized
               file C.pbe-n-kjpaw_psl.1.0.0.UPF: wavefunction(s)  2S 2P renormalized
               file C.pbe-n-kjpaw_psl.1.0.0.UPF: wavefunction(s)  2S 2P renormalized
               file C.pbe-n-kjpaw_psl.1.0.0.UPF: wavefunction(s)  2S 2P renormalized
     EXX fraction changed:   0.32
     EXX Screening parameter changed:    0.0455000

     --------------------------------------------
     Parameters for DFT-D3 Dispersion Correction:
     --------------------------------------------
       Reference C6 values for interpolation: 

         atom   Coordination number   C6
         B          0.000           214.36
         B          0.971           150.74
         B          1.944           106.23
         B          2.913            62.89
         B          4.586            56.06
         C1         0.000            98.23
         C1         0.987            86.49
         C1         1.998            58.72
         C1         2.999            51.56
         C1         3.984            36.41
         C2         0.000            98.23
         C2         0.987            86.49
         C2         1.998            58.72
         C2         2.999            51.56
         C2         3.984            36.41
         C3         0.000            98.23
         C3         0.987            86.49
         C3         1.998            58.72
         C3         2.999            51.56
         C3         3.984            36.41
         N          0.000            50.54
         N          0.994            44.25
         N          2.014            39.35
         N          2.990            31.16

       Values used:

         atom   Coordination number  R0_AB[au]  C6      C8
         B          3.325            3.039     62.90   2506.24
         B          3.317            3.039     62.90   2506.44
         B          3.317            3.039     62.90   2506.43
         B          3.325            3.039     62.90   2506.25
         B          3.327            3.039     62.90   2506.21
         B          3.324            3.039     62.90   2506.27
         B          3.326            3.039     62.90   2506.22
         B          3.325            3.039     62.90   2506.26
         B          3.323            3.039     62.90   2506.30
         B          3.303            3.039     62.91   2506.76
         B          3.322            3.039     62.90   2506.33
         B          3.329            3.039     62.90   2506.15
         B          3.325            3.039     62.90   2506.24
         B          3.324            3.039     62.90   2506.27
         B          3.325            3.039     62.90   2506.26
         B          3.327            3.039     62.90   2506.21
         B          3.297            3.039     62.91   2506.88
         B          3.297            3.039     62.91   2506.90
         B          3.336            3.039     62.89   2505.99
         B          3.329            3.039     62.90   2506.15
         B          3.327            3.039     62.90   2506.21
         B          3.323            3.039     62.90   2506.31
         B          3.319            3.039     62.90   2506.40
         B          3.314            3.039     62.90   2506.51
         C2         3.249            2.750     49.43   1429.56
         B          3.297            3.039     62.91   2506.90
         B          3.322            3.039     62.90   2506.33
         B          3.325            3.039     62.90   2506.25
         B          3.321            3.039     62.90   2506.36
         B          3.319            3.039     62.90   2506.39
         B          3.315            3.039     62.90   2506.50
         B          3.314            3.039     62.90   2506.51
         B          3.297            3.039     62.91   2506.88
         B          3.303            3.039     62.91   2506.76
         B          3.317            3.039     62.90   2506.43
         B          3.316            3.039     62.90   2506.45
         B          3.318            3.039     62.90   2506.42
         B          3.319            3.039     62.90   2506.39
         B          3.319            3.039     62.90   2506.40
         B          3.327            3.039     62.90   2506.21
         B          3.323            3.039     62.90   2506.30
         B          3.317            3.039     62.90   2506.44
         B          3.319            3.039     62.90   2506.40
         B          3.316            3.039     62.90   2506.45
         B          3.321            3.039     62.90   2506.36
         B          3.323            3.039     62.90   2506.31
         B          3.325            3.039     62.90   2506.26
         B          3.325            3.039     62.90   2506.26
         B          3.325            3.039     62.90   2506.24
         N          3.129            2.478     31.22    688.74
         N          3.128            2.478     31.22    688.75
         N          3.125            2.478     31.22    688.79
         N          3.128            2.478     31.22    688.75
         N          3.130            2.478     31.22    688.73
         N          3.129            2.478     31.22    688.75
         N          3.129            2.478     31.22    688.75
         N          3.129            2.478     31.22    688.75
         N          3.129            2.478     31.22    688.74
         N          3.124            2.478     31.22    688.79
         N          3.123            2.478     31.22    688.80
         N          3.132            2.478     31.22    688.72
         N          3.130            2.478     31.22    688.74
         N          3.129            2.478     31.22    688.75
         N          3.130            2.478     31.22    688.74
         N          3.129            2.478     31.22    688.74
         N          3.132            2.478     31.22    688.71
         C1         3.192            2.750     50.14   1450.24
         N          3.134            2.478     31.22    688.70
         N          3.132            2.478     31.22    688.72
         N          3.130            2.478     31.22    688.73
         N          3.129            2.478     31.22    688.75
         N          3.127            2.478     31.22    688.76
         N          3.126            2.478     31.22    688.78
         N          3.155            2.478     31.21    688.52
         C3         3.192            2.750     50.14   1450.24
         N          3.123            2.478     31.22    688.80
         N          3.128            2.478     31.22    688.75
         N          3.127            2.478     31.22    688.77
         N          3.127            2.478     31.22    688.76
         N          3.127            2.478     31.22    688.77
         N          3.126            2.478     31.22    688.78
         N          3.132            2.478     31.22    688.71
         N          3.124            2.478     31.22    688.79
         N          3.125            2.478     31.22    688.79
         N          3.126            2.478     31.22    688.77
         N          3.126            2.478     31.22    688.77
         N          3.127            2.478     31.22    688.76
         N          3.127            2.478     31.22    688.76
         N          3.129            2.478     31.22    688.74
         N          3.129            2.478     31.22    688.74
         N          3.128            2.478     31.22    688.75
         N          3.129            2.478     31.22    688.74
         N          3.126            2.478     31.22    688.77
         N          3.127            2.478     31.22    688.77
         N          3.129            2.478     31.22    688.75
         N          3.130            2.478     31.22    688.74
         N          3.129            2.478     31.22    688.75
         N          3.129            2.478     31.22    688.74

         Molecular C6 ( Ry / a.u.^6 ) =    437698.51


     gamma-point specific algorithms are used
     Message from routine setup :
     BEWARE: nonlinear core correction is not consistent with hybrid XC

     Subspace diagonalization in iterative solution of the eigenvalue problem:
     one sub-group per band group will be used
     scalapack distributed-memory algorithm (size of sub-group:  5*  5 procs)

     EXX: grid of k+q points same as grid of k-points
 
     Parallelization info
     --------------------
     sticks:   dense  smooth     PW     G-vecs:    dense   smooth      PW
     Min          22      22      4                  838      838      88
     Max          24      24      6                  860      860     114
     Sum        1519    1519    379                54687    54687    6813
 


     bravais-lattice index     =            0
     lattice parameter (alat)  =      33.2346  a.u.
     unit-cell volume          =   36184.4017 (a.u.)^3
     number of atoms/cell      =           98
     number of atomic types    =            5
     number of electrons       =       391.00
     number of Kohn-Sham states=          245
     kinetic-energy cutoff     =       5.0000  Ry
     charge density cutoff     =      20.0000  Ry
     cutoff for Fock operator  =      20.0000  Ry
     convergence threshold     =      1.0E-06
     mixing beta               =       0.7000
     number of iterations used =            8  plain     mixing
     Exchange-correlation      = HSE ( 1  4 12  4 0 0)
     EXX-fraction              =        0.32
     Using LIBXC version       =    4   3   4

     celldm(1)=  33.234611  celldm(2)=   0.000000  celldm(3)=   0.000000
     celldm(4)=   0.000000  celldm(5)=   0.000000  celldm(6)=   0.000000

     crystal axes: (cart. coord. in units of alat)
               a(1) = (   1.000640  -0.000349   0.000000 )  
               a(2) = (  -0.500622   0.866405   0.000000 )  
               a(3) = (   0.000000   0.000000   1.137204 )  

     reciprocal axes: (cart. coord. in units 2 pi/alat)
               b(1) = (  0.999562  0.577562  0.000000 )  
               b(2) = (  0.000402  1.154427  0.000000 )  
               b(3) = (  0.000000  0.000000  0.879350 )  


     PseudoPot. # 1 for B  read from file:
     ./pseudo/B.pbe-n-kjpaw_psl.1.0.0.UPF
     MD5 check sum: 8c825a5969375aca5c2c6ad5945b3059
     Pseudo is Projector augmented-wave + core cor, Zval =  3.0
     Generated using "atomic" code by A. Dal Corso v.6.3
     Shape of augmentation charge: PSQ
     Using radial grid of 1059 points,  4 beta functions with: 
                l(1) =   0
                l(2) =   0
                l(3) =   1
                l(4) =   1
     Q(r) pseudized with 0 coefficients 


     PseudoPot. # 2 for N  read from file:
     ./pseudo/N.pbe-n-kjpaw_psl.1.0.0.UPF
     MD5 check sum: 14c48229446f9f2d411169a3abcbc3fa
     Pseudo is Projector augmented-wave + core cor, Zval =  5.0
     Generated using "atomic" code by A. Dal Corso v.6.3
     Shape of augmentation charge: PSQ
     Using radial grid of 1085 points,  4 beta functions with: 
                l(1) =   0
                l(2) =   0
                l(3) =   1
                l(4) =   1
     Q(r) pseudized with 0 coefficients 


     PseudoPot. # 3 for C  read from file:
     ./pseudo/C.pbe-n-kjpaw_psl.1.0.0.UPF
     MD5 check sum: 5f16ad9a65e90284d1d834d4ab3b0f7d
     Pseudo is Projector augmented-wave + core cor, Zval =  4.0
     Generated using "atomic" code by A. Dal Corso v.6.3
     Shape of augmentation charge: PSQ
     Using radial grid of 1073 points,  4 beta functions with: 
                l(1) =   0
                l(2) =   0
                l(3) =   1
                l(4) =   1
     Q(r) pseudized with 0 coefficients 


     PseudoPot. # 4 for C  read from file:
     ./pseudo/C.pbe-n-kjpaw_psl.1.0.0.UPF
     MD5 check sum: 5f16ad9a65e90284d1d834d4ab3b0f7d
     Pseudo is Projector augmented-wave + core cor, Zval =  4.0
     Generated using "atomic" code by A. Dal Corso v.6.3
     Shape of augmentation charge: PSQ
     Using radial grid of 1073 points,  4 beta functions with: 
                l(1) =   0
                l(2) =   0
                l(3) =   1
                l(4) =   1
     Q(r) pseudized with 0 coefficients 


     PseudoPot. # 5 for C  read from file:
     ./pseudo/C.pbe-n-kjpaw_psl.1.0.0.UPF
     MD5 check sum: 5f16ad9a65e90284d1d834d4ab3b0f7d
     Pseudo is Projector augmented-wave + core cor, Zval =  4.0
     Generated using "atomic" code by A. Dal Corso v.6.3
     Shape of augmentation charge: PSQ
     Using radial grid of 1073 points,  4 beta functions with: 
                l(1) =   0
                l(2) =   0
                l(3) =   1
                l(4) =   1
     Q(r) pseudized with 0 coefficients 


     atomic species   valence    mass     pseudopotential
        B              3.00    10.00000     B ( 1.00)
        N              5.00    14.00000     N ( 1.00)
        C1             4.00    12.00000     C ( 1.00)
        C2             4.00    12.00000     C ( 1.00)
        C3             4.00    12.00000     C ( 1.00)

     Starting magnetic structure 
     atomic species   magnetization
        B            0.000
        N            0.000
        C1           1.000
        C2           0.000
        C3           0.000

     No symmetry found



   Cartesian axes

     site n.     atom                  positions (alat units)
         1           B   tau(   1) = (  -0.0000233   0.0821617   0.5686018  )
         2           B   tau(   2) = (  -0.0713866   0.2062009   0.5686018  )
         3           B   tau(   3) = (  -0.1430783   0.3301031   0.5686018  )
         4           B   tau(   4) = (  -0.2149375   0.4537632   0.5686018  )
         5           B   tau(   5) = (  -0.2861755   0.5775434   0.5686018  )
         6           B   tau(   6) = (  -0.3574872   0.7014372   0.5686018  )
         7           B   tau(   7) = (  -0.4290711   0.8250953   0.5686018  )
         8           B   tau(   8) = (   0.1428779   0.0818580   0.5686018  )
         9           B   tau(   9) = (   0.0712222   0.2053694   0.5686018  )
        10           B   tau(  10) = (   0.0002327   0.3301362   0.5686018  )
        11           B   tau(  11) = (  -0.0725304   0.4539838   0.5686018  )
        12           B   tau(  12) = (  -0.1441451   0.5777657   0.5686018  )
        13           B   tau(  13) = (  -0.2149187   0.7014543   0.5686018  )
        14           B   tau(  14) = (  -0.2861881   0.8249309   0.5686018  )
        15           B   tau(  15) = (   0.2862131   0.0818140   0.5686018  )
        16           B   tau(  16) = (   0.2148456   0.2045690   0.5686018  )
        17           B   tau(  17) = (   0.1436176   0.3272083   0.5686018  )
        18           B   tau(  18) = (   0.0696289   0.4562046   0.5686018  )
        19           B   tau(  19) = (  -0.0025925   0.5788678   0.5686018  )
        20           B   tau(  20) = (  -0.0724144   0.7020070   0.5686018  )
        21           B   tau(  21) = (  -0.1432370   0.8251201   0.5686018  )
        22           B   tau(  22) = (   0.4289841   0.0823577   0.5686018  )
        23           B   tau(  23) = (   0.3574544   0.2061244   0.5686018  )
        24           B   tau(  24) = (   0.2853662   0.3296798   0.5686018  )
        25           C2  tau(  25) = (   0.2152526   0.4530948   0.5686018  )
        26           B   tau(  26) = (   0.1397476   0.5776538   0.5686018  )
        27           B   tau(  27) = (   0.0705912   0.7018778   0.5686018  )
        28           B   tau(  28) = (  -0.0004212   0.8253162   0.5686018  )
        29           B   tau(  29) = (   0.5717760   0.0822445   0.5686018  )
        30           B   tau(  30) = (   0.5003561   0.2060412   0.5686018  )
        31           B   tau(  31) = (   0.4287233   0.3298475   0.5686018  )
        32           B   tau(  32) = (   0.3571899   0.4540822   0.5686018  )
        33           B   tau(  33) = (   0.2884561   0.5780758   0.5686018  )
        34           B   tau(  34) = (   0.2142280   0.7007869   0.5686018  )
        35           B   tau(  35) = (   0.1426011   0.8249144   0.5686018  )
        36           B   tau(  36) = (   0.7147681   0.0821485   0.5686018  )
        37           B   tau(  37) = (   0.6432419   0.2059952   0.5686018  )
        38           B   tau(  38) = (   0.5717591   0.3297149   0.5686018  )
        39           B   tau(  39) = (   0.5002362   0.4534298   0.5686018  )
        40           B   tau(  40) = (   0.4302789   0.5777103   0.5686018  )
        41           B   tau(  41) = (   0.3577740   0.7016916   0.5686018  )
        42           B   tau(  42) = (   0.2857495   0.8247786   0.5686018  )
        43           B   tau(  43) = (   0.8578476   0.0820925   0.5686018  )
        44           B   tau(  44) = (   0.7862593   0.2059749   0.5686018  )
        45           B   tau(  45) = (   0.7146801   0.3297618   0.5686018  )
        46           B   tau(  46) = (   0.6431861   0.4533666   0.5686018  )
        47           B   tau(  47) = (   0.5722715   0.5772817   0.5686018  )
        48           B   tau(  48) = (   0.5005658   0.7013916   0.5686018  )
        49           B   tau(  49) = (   0.4288522   0.8249958   0.5686018  )
        50           N   tau(  50) = (   0.0714331   0.0409759   0.5686018  )
        51           N   tau(  51) = (  -0.0001876   0.1644906   0.5686018  )
        52           N   tau(  52) = (  -0.0713557   0.2888776   0.5686018  )
        53           N   tau(  53) = (  -0.1436341   0.4125195   0.5686018  )
        54           N   tau(  54) = (  -0.2151393   0.5362333   0.5686018  )
        55           N   tau(  55) = (  -0.2862233   0.6600795   0.5686018  )
        56           N   tau(  56) = (  -0.3576342   0.7838513   0.5686018  )
        57           N   tau(  57) = (   0.2145160   0.0409095   0.5686018  )
        58           N   tau(  58) = (   0.1429488   0.1642146   0.5686018  )
        59           N   tau(  59) = (   0.0713660   0.2876061   0.5686018  )
        60           N   tau(  60) = (  -0.0007870   0.4130708   0.5686018  )
        61           N   tau(  61) = (  -0.0731783   0.5365814   0.5686018  )
        62           N   tau(  62) = (  -0.1436888   0.6603299   0.5686018  )
        63           N   tau(  63) = (  -0.2147393   0.7838935   0.5686018  )
        64           N   tau(  64) = (   0.3576142   0.0410192   0.5686018  )
        65           N   tau(  65) = (   0.2863754   0.1641474   0.5686018  )
        66           N   tau(  66) = (   0.2150130   0.2867948   0.5686018  )
        67           C1  tau(  67) = (   0.1457790   0.4134614   0.5686018  )
        68           N   tau(  68) = (   0.0679304   0.5381514   0.5686018  )
        69           N   tau(  69) = (  -0.0012643   0.6611402   0.5686018  )
        70           N   tau(  70) = (  -0.0719434   0.7842561   0.5686018  )
        71           N   tau(  71) = (   0.5003317   0.0412613   0.5686018  )
        72           N   tau(  72) = (   0.4288916   0.1649165   0.5686018  )
        73           N   tau(  73) = (   0.3571532   0.2888803   0.5686018  )
        74           N   tau(  74) = (   0.2850449   0.4128002   0.5686018  )
        75           C3  tau(  75) = (   0.2148394   0.5330775   0.5686018  )
        76           N   tau(  76) = (   0.1418947   0.6602027   0.5686018  )
        77           N   tau(  77) = (   0.0709485   0.7841876   0.5686018  )
        78           N   tau(  78) = (   0.6432797   0.0409898   0.5686018  )
        79           N   tau(  79) = (   0.5717930   0.1647678   0.5686018  )
        80           N   tau(  80) = (   0.5002145   0.2885720   0.5686018  )
        81           N   tau(  81) = (   0.4284168   0.4123125   0.5686018  )
        82           N   tau(  82) = (   0.3591528   0.5364523   0.5686018  )
        83           N   tau(  83) = (   0.2866267   0.6604486   0.5686018  )
        84           N   tau(  84) = (   0.2141647   0.7834136   0.5686018  )
        85           N   tau(  85) = (   0.7862879   0.0408973   0.5686018  )
        86           N   tau(  86) = (   0.7147525   0.1647085   0.5686018  )
        87           N   tau(  87) = (   0.6432213   0.2884853   0.5686018  )
        88           N   tau(  88) = (   0.5716419   0.4121672   0.5686018  )
        89           N   tau(  89) = (   0.5010498   0.5359745   0.5686018  )
        90           N   tau(  90) = (   0.4292784   0.6601520   0.5686018  )
        91           N   tau(  91) = (   0.3574711   0.7839737   0.5686018  )
        92           N   tau(  92) = (   0.9292454   0.0408710   0.5686018  )
        93           N   tau(  93) = (   0.8577438   0.1646625   0.5686018  )
        94           N   tau(  94) = (   0.7861596   0.2884650   0.5686018  )
        95           N   tau(  95) = (   0.7144506   0.4121259   0.5686018  )
        96           N   tau(  96) = (   0.6433014   0.5358440   0.5686018  )
        97           N   tau(  97) = (   0.5718474   0.6598256   0.5686018  )
        98           N   tau(  98) = (   0.5002484   0.7837058   0.5686018  )

     number of k points=     1
                       cart. coord. in units 2pi/alat
        k(    1) = (   0.0000000   0.0000000   0.0000000), wk =   1.0000000

     Dense  grid:    27344 G-vectors     FFT dimensions: (  48,  48,  54)

     Occupations read from input 

      Spin-up

        1.0000   1.0000   1.0000   1.0000   1.0000   1.0000   1.0000   1.0000
        1.0000   1.0000   1.0000   1.0000   1.0000   1.0000   1.0000   1.0000
        1.0000   1.0000   1.0000   1.0000   1.0000   1.0000   1.0000   1.0000
        1.0000   1.0000   1.0000   1.0000   1.0000   1.0000   1.0000   1.0000
        1.0000   1.0000   1.0000   1.0000   1.0000   1.0000   1.0000   1.0000
        1.0000   1.0000   1.0000   1.0000   1.0000   1.0000   1.0000   1.0000
        1.0000   1.0000   1.0000   1.0000   1.0000   1.0000   1.0000   1.0000
        1.0000   1.0000   1.0000   1.0000   1.0000   1.0000   1.0000   1.0000
        1.0000   1.0000   1.0000   1.0000   1.0000   1.0000   1.0000   1.0000
        1.0000   1.0000   1.0000   1.0000   1.0000   1.0000   1.0000   1.0000
        1.0000   1.0000   1.0000   1.0000   1.0000   1.0000   1.0000   1.0000
        1.0000   1.0000   1.0000   1.0000   1.0000   1.0000   1.0000   1.0000
        1.0000   1.0000   1.0000   1.0000   1.0000   1.0000   1.0000   1.0000
        1.0000   1.0000   1.0000   1.0000   1.0000   1.0000   1.0000   1.0000
        1.0000   1.0000   1.0000   1.0000   1.0000   1.0000   1.0000   1.0000
        1.0000   1.0000   1.0000   1.0000   1.0000   1.0000   1.0000   1.0000
        1.0000   1.0000   1.0000   1.0000   1.0000   1.0000   1.0000   1.0000
        1.0000   1.0000   1.0000   1.0000   1.0000   1.0000   1.0000   1.0000
        1.0000   1.0000   1.0000   1.0000   1.0000   1.0000   1.0000   1.0000
        1.0000   1.0000   1.0000   1.0000   1.0000   1.0000   1.0000   1.0000
        1.0000   1.0000   1.0000   1.0000   1.0000   1.0000   1.0000   1.0000
        1.0000   1.0000   1.0000   1.0000   1.0000   1.0000   1.0000   1.0000
        1.0000   1.0000   1.0000   1.0000   1.0000   1.0000   1.0000   1.0000
        1.0000   1.0000   1.0000   1.0000   1.0000   1.0000   1.0000   1.0000
        1.0000   1.0000   1.0000   1.0000   0.0000   0.0000   0.0000   0.0000
        0.0000   0.0000   0.0000   0.0000   0.0000   0.0000   0.0000   0.0000
        0.0000   0.0000   0.0000   0.0000   0.0000   0.0000   0.0000   0.0000
        0.0000   0.0000   0.0000   0.0000   0.0000   0.0000   0.0000   0.0000
        0.0000   0.0000   0.0000   0.0000   0.0000   0.0000   0.0000   0.0000
        0.0000   0.0000   0.0000   0.0000   0.0000   0.0000   0.0000   0.0000
        0.0000   0.0000   0.0000   0.0000   0.0000

      Spin-down

        1.0000   1.0000   1.0000   1.0000   1.0000   1.0000   1.0000   1.0000
        1.0000   1.0000   1.0000   1.0000   1.0000   1.0000   1.0000   1.0000
        1.0000   1.0000   1.0000   1.0000   1.0000   1.0000   1.0000   1.0000
        1.0000   1.0000   1.0000   1.0000   1.0000   1.0000   1.0000   1.0000
        1.0000   1.0000   1.0000   1.0000   1.0000   1.0000   1.0000   1.0000
        1.0000   1.0000   1.0000   1.0000   1.0000   1.0000   1.0000   1.0000
        1.0000   1.0000   1.0000   1.0000   1.0000   1.0000   1.0000   1.0000
        1.0000   1.0000   1.0000   1.0000   1.0000   1.0000   1.0000   1.0000
        1.0000   1.0000   1.0000   1.0000   1.0000   1.0000   1.0000   1.0000
        1.0000   1.0000   1.0000   1.0000   1.0000   1.0000   1.0000   1.0000
        1.0000   1.0000   1.0000   1.0000   1.0000   1.0000   1.0000   1.0000
        1.0000   1.0000   1.0000   1.0000   1.0000   1.0000   1.0000   1.0000
        1.0000   1.0000   1.0000   1.0000   1.0000   1.0000   1.0000   1.0000
        1.0000   1.0000   1.0000   1.0000   1.0000   1.0000   1.0000   1.0000
        1.0000   1.0000   1.0000   1.0000   1.0000   1.0000   1.0000   1.0000
        1.0000   1.0000   1.0000   1.0000   1.0000   1.0000   1.0000   1.0000
        1.0000   1.0000   1.0000   1.0000   1.0000   1.0000   1.0000   1.0000
        1.0000   1.0000   1.0000   1.0000   1.0000   1.0000   1.0000   1.0000
        1.0000   1.0000   1.0000   1.0000   1.0000   1.0000   1.0000   1.0000
        1.0000   1.0000   1.0000   1.0000   1.0000   1.0000   1.0000   1.0000
        1.0000   1.0000   1.0000   1.0000   1.0000   1.0000   1.0000   1.0000
        1.0000   1.0000   1.0000   1.0000   1.0000   1.0000   1.0000   1.0000
        1.0000   1.0000   1.0000   1.0000   1.0000   1.0000   1.0000   1.0000
        1.0000   1.0000   1.0000   1.0000   1.0000   1.0000   1.0000   1.0000
        1.0000   1.0000   1.0000   0.0000   0.0000   0.0000   0.0000   0.0000
        0.0000   0.0000   0.0000   0.0000   0.0000   0.0000   0.0000   0.0000
        0.0000   0.0000   0.0000   0.0000   0.0000   0.0000   0.0000   0.0000
        0.0000   0.0000   0.0000   0.0000   0.0000   0.0000   0.0000   0.0000
        0.0000   0.0000   0.0000   0.0000   0.0000   0.0000   0.0000   0.0000
        0.0000   0.0000   0.0000   0.0000   0.0000   0.0000   0.0000   0.0000
        0.0000   0.0000   0.0000   0.0000   0.0000

     Estimated max dynamical RAM per process >      18.87 MB

     Estimated total dynamical RAM >       1.18 GB
     Generating pointlists ...
     new r_m :   0.0336 (alat units)  1.1164 (a.u.) for type    1
     new r_m :   0.0332 (alat units)  1.1048 (a.u.) for type    2
     new r_m :   0.0330 (alat units)  1.0965 (a.u.) for type    3
     new r_m :   0.0330 (alat units)  1.0965 (a.u.) for type    4
     new r_m :   0.0330 (alat units)  1.0965 (a.u.) for type    5

     Check: negative core charge=   -0.001584

     Initial potential from superposition of free atoms

     starting charge  390.98597, renormalised to  391.00000

     negative rho (up, down):  2.753E+00 1.456E-02
     Starting wfcs are  392 randomized atomic wfcs

     total cpu time spent up to now is        3.6 secs

     Self-consistent Calculation

     iteration #  1     ecut=     5.00 Ry     beta= 0.70
     CG style diagonalization
     ethr =  1.00E-02,  avg # of iterations =  3.3

     negative rho (up, down):  7.628E+00 4.292E-03

     total cpu time spent up to now is        6.4 secs

     total energy              =   -1754.17759422 Ry
     Harris-Foulkes estimate   =   -1792.10144691 Ry
     estimated scf accuracy    <      53.58730123 Ry

     total magnetization       =     1.00 Bohr mag/cell
     absolute magnetization    =     1.42 Bohr mag/cell

     iteration #  2     ecut=     5.00 Ry     beta= 0.70
     CG style diagonalization
     ethr =  1.00E-02,  avg # of iterations =  3.5

     negative rho (up, down):  9.670E+00 2.837E-03

     total cpu time spent up to now is        7.6 secs

     total energy              =   -1759.48181228 Ry
     Harris-Foulkes estimate   =   -1761.79068389 Ry
     estimated scf accuracy    <       4.44716355 Ry

     total magnetization       =     1.00 Bohr mag/cell
     absolute magnetization    =     1.50 Bohr mag/cell

     iteration #  3     ecut=     5.00 Ry     beta= 0.70
     CG style diagonalization
     ethr =  1.14E-03,  avg # of iterations =  4.5

     negative rho (up, down):  1.005E+01 2.411E-03

     total cpu time spent up to now is        9.2 secs

     total energy              =   -1759.27860938 Ry
     Harris-Foulkes estimate   =   -1762.81649216 Ry
     estimated scf accuracy    <       7.89929836 Ry

     total magnetization       =     1.00 Bohr mag/cell
     absolute magnetization    =     1.24 Bohr mag/cell

     iteration #  4     ecut=     5.00 Ry     beta= 0.70
     CG style diagonalization
     ethr =  1.14E-03,  avg # of iterations =  3.9

     negative rho (up, down):  1.047E+01 9.886E-04

     total cpu time spent up to now is       10.5 secs

     total energy              =   -1760.82068507 Ry
     Harris-Foulkes estimate   =   -1760.95350172 Ry
     estimated scf accuracy    <       0.27687841 Ry

     total magnetization       =     1.00 Bohr mag/cell
     absolute magnetization    =     1.15 Bohr mag/cell

     iteration #  5     ecut=     5.00 Ry     beta= 0.70
     CG style diagonalization
     c_bands:  1 eigenvalues not converged
     ethr =  7.08E-05,  avg # of iterations =  4.5

     negative rho (up, down):  1.055E+01 8.520E-04

     total cpu time spent up to now is       12.1 secs

     total energy              =   -1760.84998534 Ry
     Harris-Foulkes estimate   =   -1760.91078379 Ry
     estimated scf accuracy    <       0.12356161 Ry

     total magnetization       =     1.00 Bohr mag/cell
     absolute magnetization    =     1.12 Bohr mag/cell

     iteration #  6     ecut=     5.00 Ry     beta= 0.70
     CG style diagonalization
     ethr =  3.16E-05,  avg # of iterations =  3.9

     negative rho (up, down):  1.056E+01 7.153E-04

     total cpu time spent up to now is       13.5 secs

     total energy              =   -1760.87530542 Ry
     Harris-Foulkes estimate   =   -1760.88473665 Ry
     estimated scf accuracy    <       0.02183190 Ry

     total magnetization       =     1.00 Bohr mag/cell
     absolute magnetization    =     1.13 Bohr mag/cell

     iteration #  7     ecut=     5.00 Ry     beta= 0.70
     CG style diagonalization
     c_bands:  1 eigenvalues not converged
     c_bands:  1 eigenvalues not converged
     ethr =  5.58E-06,  avg # of iterations =  4.0

     negative rho (up, down):  1.056E+01 7.796E-04

     total cpu time spent up to now is       14.9 secs

     total energy              =   -1760.87909405 Ry
     Harris-Foulkes estimate   =   -1760.88022850 Ry
     estimated scf accuracy    <       0.00306256 Ry

     total magnetization       =     1.00 Bohr mag/cell
     absolute magnetization    =     1.13 Bohr mag/cell

     iteration #  8     ecut=     5.00 Ry     beta= 0.70
     CG style diagonalization
     c_bands:  1 eigenvalues not converged
     c_bands:  3 eigenvalues not converged
     ethr =  7.83E-07,  avg # of iterations =  3.8

     negative rho (up, down):  1.056E+01 8.198E-04

     total cpu time spent up to now is       16.2 secs

     total energy              =   -1760.87965298 Ry
     Harris-Foulkes estimate   =   -1760.87967260 Ry
     estimated scf accuracy    <       0.00027118 Ry

     total magnetization       =     1.00 Bohr mag/cell
     absolute magnetization    =     1.14 Bohr mag/cell

     iteration #  9     ecut=     5.00 Ry     beta= 0.70
     CG style diagonalization
     c_bands:  1 eigenvalues not converged
     ethr =  6.94E-08,  avg # of iterations =  3.7

     negative rho (up, down):  1.056E+01 8.198E-04

     total cpu time spent up to now is       17.4 secs

     total energy              =   -1760.87970054 Ry
     Harris-Foulkes estimate   =   -1760.87974119 Ry
     estimated scf accuracy    <       0.00003862 Ry

     total magnetization       =     1.00 Bohr mag/cell
     absolute magnetization    =     1.14 Bohr mag/cell

     iteration # 10     ecut=     5.00 Ry     beta= 0.70
     CG style diagonalization
     ethr =  9.88E-09,  avg # of iterations =  3.7

     negative rho (up, down):  1.056E+01 8.520E-04

     total cpu time spent up to now is       18.7 secs

     total energy              =   -1760.87970312 Ry
     Harris-Foulkes estimate   =   -1760.87971565 Ry
     estimated scf accuracy    <       0.00000691 Ry

     total magnetization       =     1.00 Bohr mag/cell
     absolute magnetization    =     1.15 Bohr mag/cell

     iteration # 11     ecut=     5.00 Ry     beta= 0.70
     CG style diagonalization
     ethr =  1.77E-09,  avg # of iterations =  3.6

     negative rho (up, down):  1.056E+01 8.520E-04

     total cpu time spent up to now is       19.9 secs

     total energy              =   -1760.87970053 Ry
     Harris-Foulkes estimate   =   -1760.87970511 Ry
     estimated scf accuracy    <       0.00000128 Ry

     total magnetization       =     1.00 Bohr mag/cell
     absolute magnetization    =     1.15 Bohr mag/cell

     iteration # 12     ecut=     5.00 Ry     beta= 0.70
     CG style diagonalization
     ethr =  3.28E-10,  avg # of iterations =  3.6

     negative rho (up, down):  1.056E+01 8.520E-04
 
     Magnetic moment per site:
     atom:    1    charge:    0.8311    magn:    0.0000    constr:    0.0000
     atom:    2    charge:    0.8024    magn:    0.0002    constr:    0.0000
     atom:    3    charge:    0.8004    magn:    0.0007    constr:    0.0000
     atom:    4    charge:    0.7921    magn:   -0.0000    constr:    0.0000
     atom:    5    charge:    0.8050    magn:    0.0000    constr:    0.0000
     atom:    6    charge:    0.8082    magn:    0.0001    constr:    0.0000
     atom:    7    charge:    0.8320    magn:   -0.0000    constr:    0.0000
     atom:    8    charge:    0.8297    magn:    0.0002    constr:    0.0000
     atom:    9    charge:    0.8061    magn:   -0.0002    constr:    0.0000
     atom:   10    charge:    0.7791    magn:    0.0020    constr:    0.0000
     atom:   11    charge:    0.7603    magn:    0.0004    constr:    0.0000
     atom:   12    charge:    0.7490    magn:    0.0001    constr:    0.0000
     atom:   13    charge:    0.7871    magn:   -0.0000    constr:    0.0000
     atom:   14    charge:    0.8082    magn:    0.0001    constr:    0.0000
     atom:   15    charge:    0.8468    magn:   -0.0001    constr:    0.0000
     atom:   16    charge:    0.8299    magn:    0.0001    constr:    0.0000
     atom:   17    charge:    0.7415    magn:    0.0000    constr:    0.0000
     atom:   18    charge:    0.7692    magn:    0.0047    constr:    0.0000
     atom:   19    charge:    0.7720    magn:   -0.0003    constr:    0.0000
     atom:   20    charge:    0.7490    magn:    0.0001    constr:    0.0000
     atom:   21    charge:    0.8050    magn:    0.0000    constr:    0.0000
     atom:   22    charge:    0.8270    magn:    0.0000    constr:    0.0000
     atom:   23    charge:    0.8433    magn:    0.0003    constr:    0.0000
     atom:   24    charge:    0.8270    magn:   -0.0001    constr:    0.0000
     atom:   25    charge:    1.1123    magn:   -0.0032    constr:    0.0000
     atom:   26    charge:    0.7692    magn:    0.0047    constr:    0.0000
     atom:   27    charge:    0.7603    magn:    0.0004    constr:    0.0000
     atom:   28    charge:    0.7921    magn:   -0.0000    constr:    0.0000
     atom:   29    charge:    0.8271    magn:    0.0000    constr:    0.0000
     atom:   30    charge:    0.8619    magn:    0.0001    constr:    0.0000
     atom:   31    charge:    0.8626    magn:   -0.0001    constr:    0.0000
     atom:   32    charge:    0.8270    magn:   -0.0001    constr:    0.0000
     atom:   33    charge:    0.7415    magn:    0.0000    constr:    0.0000
     atom:   34    charge:    0.7791    magn:    0.0020    constr:    0.0000
     atom:   35    charge:    0.8004    magn:    0.0007    constr:    0.0000
     atom:   36    charge:    0.8407    magn:    0.0003    constr:    0.0000
     atom:   37    charge:    0.8457    magn:   -0.0000    constr:    0.0000
     atom:   38    charge:    0.8619    magn:    0.0001    constr:    0.0000
     atom:   39    charge:    0.8433    magn:    0.0003    constr:    0.0000
     atom:   40    charge:    0.8299    magn:    0.0001    constr:    0.0000
     atom:   41    charge:    0.8061    magn:   -0.0002    constr:    0.0000
     atom:   42    charge:    0.8024    magn:    0.0002    constr:    0.0000
     atom:   43    charge:    0.8259    magn:   -0.0000    constr:    0.0000
     atom:   44    charge:    0.8407    magn:    0.0003    constr:    0.0000
     atom:   45    charge:    0.8271    magn:    0.0000    constr:    0.0000
     atom:   46    charge:    0.8270    magn:    0.0000    constr:    0.0000
     atom:   47    charge:    0.8468    magn:   -0.0001    constr:    0.0000
     atom:   48    charge:    0.8297    magn:    0.0002    constr:    0.0000
     atom:   49    charge:    0.8311    magn:    0.0000    constr:    0.0000
     atom:   50    charge:    1.5239    magn:    0.0003    constr:    0.0000
     atom:   51    charge:    1.5135    magn:   -0.0000    constr:    0.0000
     atom:   52    charge:    1.5080    magn:    0.0011    constr:    0.0000
     atom:   53    charge:    1.4846    magn:    0.0000    constr:    0.0000
     atom:   54    charge:    1.4810    magn:    0.0000    constr:    0.0000
     atom:   55    charge:    1.5124    magn:    0.0000    constr:    0.0000
     atom:   56    charge:    1.5134    magn:   -0.0000    constr:    0.0000
     atom:   57    charge:    1.4714    magn:    0.0001    constr:    0.0000
     atom:   58    charge:    1.4764    magn:    0.0014    constr:    0.0000
     atom:   59    charge:    1.5093    magn:    0.0016    constr:    0.0000
     atom:   60    charge:    1.5060    magn:    0.0029    constr:    0.0000
     atom:   61    charge:    1.5302    magn:    0.0004    constr:    0.0000
     atom:   62    charge:    1.5162    magn:   -0.0000    constr:    0.0000
     atom:   63    charge:    1.5124    magn:    0.0000    constr:    0.0000
     atom:   64    charge:    1.4589    magn:    0.0000    constr:    0.0000
     atom:   65    charge:    1.4442    magn:    0.0001    constr:    0.0000
     atom:   66    charge:    1.4730    magn:    0.0040    constr:    0.0000
     atom:   67    charge:    1.1277    magn:    0.0316    constr:    0.0000
     atom:   68    charge:    1.4736    magn:   -0.0006    constr:    0.0000
     atom:   69    charge:    1.5302    magn:    0.0004    constr:    0.0000
     atom:   70    charge:    1.4810    magn:    0.0000    constr:    0.0000
     atom:   71    charge:    1.4444    magn:    0.0000    constr:    0.0000
     atom:   72    charge:    1.3774    magn:    0.0001    constr:    0.0000
     atom:   73    charge:    1.3675    magn:    0.0005    constr:    0.0000
     atom:   74    charge:    1.4099    magn:   -0.0006    constr:    0.0000
     atom:   75    charge:    1.1277    magn:    0.0315    constr:    0.0000
     atom:   76    charge:    1.5060    magn:    0.0029    constr:    0.0000
     atom:   77    charge:    1.4846    magn:    0.0000    constr:    0.0000
     atom:   78    charge:    1.4543    magn:    0.0001    constr:    0.0000
     atom:   79    charge:    1.3711    magn:    0.0000    constr:    0.0000
     atom:   80    charge:    1.3527    magn:   -0.0000    constr:    0.0000
     atom:   81    charge:    1.3675    magn:    0.0005    constr:    0.0000
     atom:   82    charge:    1.4730    magn:    0.0040    constr:    0.0000
     atom:   83    charge:    1.5093    magn:    0.0016    constr:    0.0000
     atom:   84    charge:    1.5080    magn:    0.0011    constr:    0.0000
     atom:   85    charge:    1.4719    magn:    0.0002    constr:    0.0000
     atom:   86    charge:    1.4302    magn:    0.0000    constr:    0.0000
     atom:   87    charge:    1.3711    magn:    0.0000    constr:    0.0000
     atom:   88    charge:    1.3774    magn:    0.0001    constr:    0.0000
     atom:   89    charge:    1.4442    magn:    0.0001    constr:    0.0000
     atom:   90    charge:    1.4764    magn:    0.0014    constr:    0.0000
     atom:   91    charge:    1.5135    magn:   -0.0000    constr:    0.0000
     atom:   92    charge:    1.5263    magn:   -0.0000    constr:    0.0000
     atom:   93    charge:    1.4719    magn:    0.0002    constr:    0.0000
     atom:   94    charge:    1.4543    magn:    0.0001    constr:    0.0000
     atom:   95    charge:    1.4444    magn:    0.0000    constr:    0.0000
     atom:   96    charge:    1.4589    magn:    0.0000    constr:    0.0000
     atom:   97    charge:    1.4714    magn:    0.0001    constr:    0.0000
     atom:   98    charge:    1.5239    magn:    0.0003    constr:    0.0000

     total cpu time spent up to now is       21.3 secs

     End of self-consistent calculation

 ------ SPIN UP ------------


          k = 0.0000 0.0000 0.0000 (  3407 PWs)   bands (ev):

   -32.3709 -32.2819 -32.1643 -32.1624 -32.1408 -32.0867 -31.9794 -31.6150
   -31.4326 -31.4222 -31.4144 -31.3239 -31.2964 -31.2016 -31.0764 -31.0685
   -31.0474 -30.8885 -30.8205 -30.3540 -30.1840 -30.1806 -30.1770 -30.1659
   -30.1647 -30.1589 -30.1584 -30.1386 -30.1200 -29.9355 -29.9196 -29.8115
   -29.7690 -29.7630 -29.7497 -29.5684 -29.5396 -29.3805 -29.3710 -29.3633
   -29.3470 -29.2815 -29.2704 -29.2121 -29.2045 -29.2000 -29.1986 -24.3678
   -20.8435 -17.2879 -15.8805 -15.8709 -15.8468 -15.8358 -15.8265 -15.8254
   -15.7798 -15.7539 -15.7319 -15.6889 -15.5555 -15.2362 -15.0538 -15.0488
   -15.0284 -14.9399 -14.9159 -14.7624 -14.5129 -14.4819 -14.4817 -14.4798
   -14.4708 -14.4686 -14.4685 -14.4312 -14.3573 -14.1949 -13.9800 -13.4583
   -13.0331 -13.0321 -13.0232 -12.9795 -12.8451 -12.7014 -12.6928 -12.6176
   -12.5877 -12.5035 -12.4133 -11.6628 -11.5568 -11.4575 -11.4517 -11.4400
   -11.4135 -11.3806 -11.3261 -11.3254 -11.2937 -11.2004 -11.1613 -10.8975
   -10.8703 -10.8119 -10.7663 -10.7554 -10.7497 -10.7302 -10.7256 -10.6968
   -10.6615 -10.5370 -10.5059 -10.4641 -10.4455 -10.4398 -10.4213 -10.3762
   -10.2441 -10.2413  -9.5426  -9.5317  -9.5298  -9.5297  -9.4257  -9.3126
    -9.2557  -9.2497  -9.2378  -9.2265  -9.1396  -9.1095  -9.0659  -9.0240
    -9.0204  -9.0113  -9.0071  -8.9920  -8.9778  -8.9427  -8.8338  -8.7961
    -8.7469  -8.7215  -8.7006  -8.6382  -8.6357  -8.6112  -8.5713  -8.5564
    -8.5206  -8.4710  -8.4697  -8.2984  -8.2108  -7.8574  -7.5412  -7.5218
    -7.5136  -7.3685  -6.9443  -6.8534  -6.6997  -6.6969  -6.6938  -6.6921
    -6.6917  -6.6794  -6.6768  -6.6641  -6.6503  -6.6255  -6.4658  -6.3730
    -5.8809  -5.8438  -5.8412  -5.7685  -5.7584  -5.7453  -5.6582  -5.5444
    -4.8596  -4.8291  -4.8137  -4.8078  -4.7518  -4.7299  -4.6370  -4.6032
    -4.5923  -4.5915  -4.3704  -3.5798  -2.6370  -1.8219  -1.8036  -1.7993
    -1.7836  -1.7653  -1.6920  -1.4082  -0.9528  -0.7934  -0.7872  -0.7741
    -0.7658  -0.7567  -0.7390  -0.3876  -0.3838  -0.3831  -0.3707  -0.3563
    -0.3524  -0.2775  -0.2706  -0.2694  -0.2668  -0.2515  -0.2384  -0.1795
    -0.0536  -0.0418  -0.0391  -0.0171  -0.0058   0.0120   0.0633   0.0741
     0.0937   0.1076   0.1197   0.1321   0.1558   0.3254   0.4575   0.4775
     0.4974   0.5147   0.5161   0.5173   0.5225

 ------ SPIN DOWN ----------


          k = 0.0000 0.0000 0.0000 (  3407 PWs)   bands (ev):

   -32.3669 -32.2796 -32.1622 -32.1606 -32.1399 -32.0797 -31.9750 -31.6118
   -31.4286 -31.4162 -31.4116 -31.3207 -31.2947 -31.2002 -31.0703 -31.0623
   -31.0446 -30.8800 -30.8167 -30.3472 -30.1817 -30.1771 -30.1751 -30.1630
   -30.1625 -30.1561 -30.1492 -30.1303 -30.1167 -29.9322 -29.9157 -29.8070
   -29.7652 -29.7590 -29.7469 -29.5616 -29.5359 -29.3756 -29.3674 -29.3583
   -29.3441 -29.2775 -29.2651 -29.2102 -29.2015 -29.1977 -29.1962 -24.2086
   -20.5181 -17.1776 -15.8782 -15.8673 -15.8451 -15.8349 -15.8244 -15.8231
   -15.7778 -15.7519 -15.7292 -15.6763 -15.5480 -15.2288 -15.0521 -15.0472
   -15.0256 -14.9339 -14.9071 -14.7520 -14.5082 -14.4805 -14.4796 -14.4777
   -14.4669 -14.4667 -14.4662 -14.4263 -14.3421 -14.1783 -13.9558 -13.4507
   -13.0319 -13.0288 -13.0194 -12.9758 -12.8359 -12.6952 -12.6878 -12.6103
   -12.5809 -12.4958 -12.4004 -11.6563 -11.5487 -11.4551 -11.4491 -11.4350
   -11.4107 -11.3768 -11.3220 -11.3205 -11.2823 -11.1948 -11.1498 -10.8866
   -10.8683 -10.8038 -10.7635 -10.7536 -10.7476 -10.7281 -10.7225 -10.6913
   -10.6522 -10.5189 -10.4937 -10.4523 -10.4408 -10.4354 -10.4169 -10.3545
   -10.2242 -10.1865  -9.5351  -9.5297  -9.5289  -9.5272  -9.4193  -9.2997
    -9.2454  -9.2366  -9.2287  -9.2188  -9.1201  -9.0768  -9.0608  -9.0224
    -9.0191  -9.0069  -9.0049  -8.9896  -8.9741  -8.9415  -8.8224  -8.7834
    -8.7428  -8.7136  -8.6925  -8.6243  -8.6215  -8.6013  -8.5584  -8.5537
    -8.5187  -8.4281  -8.3991  -8.2672  -8.1901  -7.8318  -7.5382  -7.5211
    -7.5106  -7.3338  -6.9088  -6.8370  -6.6945  -6.6890  -6.6884  -6.6813
    -6.6743  -6.6680  -6.6473  -6.6445  -6.6250  -6.6110  -6.4023  -6.3305
    -5.8307  -5.8271  -5.7753  -5.7583  -5.7458  -5.7370  -5.6019  -5.4939
    -4.8453  -4.8181  -4.8028  -4.7981  -4.7322  -4.7189  -4.6306  -4.5936
    -4.5855  -4.5823  -4.2270  -3.1145  -2.6298  -1.8202  -1.8016  -1.7963
    -1.7715  -1.7610  -1.6678  -1.4060  -0.9513  -0.7914  -0.7838  -0.7722
    -0.7610  -0.7562  -0.7368  -0.3820  -0.3807  -0.3792  -0.3642  -0.3497
    -0.3419  -0.2770  -0.2685  -0.2679  -0.2656  -0.2492  -0.2348  -0.1290
    -0.0397  -0.0320  -0.0313  -0.0134   0.0148   0.0284   0.0697   0.0780
     0.1000   0.1132   0.1213   0.1490   0.1712   0.3517   0.4619   0.4857
     0.4983   0.5150   0.5160   0.5223   0.5251

     highest occupied, lowest unoccupied level (ev):    -3.5798   -3.1145

!    total energy              =   -1760.87969887 Ry
     Harris-Foulkes estimate   =   -1760.87970106 Ry
     estimated scf accuracy    <       0.00000030 Ry

     total magnetization       =     1.00 Bohr mag/cell
     absolute magnetization    =     1.15 Bohr mag/cell

     convergence has been achieved in  12 iterations

     Using ACE for calculation of exact exchange

     EXX grid:    27344 G-vectors     FFT dimensions: (  48,  48,  54)

     negative rho (up, down):  1.056E+01 8.520E-04

     EXX: now go back to refine exchange calculation

     total cpu time spent up to now is      574.1 secs

     Self-consistent Calculation

     iteration #  1     ecut=     5.00 Ry     beta= 0.70
     CG style diagonalization
     ethr =  3.28E-10,  avg # of iterations = 23.3

     negative rho (up, down):  1.064E+01 6.269E-04

     total cpu time spent up to now is      584.2 secs

     total energy              =   -1540.76514726 Ry
     Harris-Foulkes estimate   =   -1540.76996425 Ry
     estimated scf accuracy    <       0.01054116 Ry

     total magnetization       =     1.00 Bohr mag/cell
     absolute magnetization    =     1.20 Bohr mag/cell

     iteration #  2     ecut=     5.00 Ry     beta= 0.70
     CG style diagonalization
     ethr =  2.70E-06,  avg # of iterations =  4.1

     negative rho (up, down):  1.067E+01 6.510E-04

     total cpu time spent up to now is      585.9 secs

     total energy              =   -1540.62946234 Ry
     Harris-Foulkes estimate   =   -1540.63114760 Ry
     estimated scf accuracy    <       0.00233260 Ry

     total magnetization       =     1.00 Bohr mag/cell
     absolute magnetization    =     1.21 Bohr mag/cell

     iteration #  3     ecut=     5.00 Ry     beta= 0.70
     CG style diagonalization
     ethr =  5.97E-07,  avg # of iterations =  3.6

     negative rho (up, down):  1.068E+01 6.752E-04

     total cpu time spent up to now is      587.4 secs

     total energy              =   -1540.62977552 Ry
     Harris-Foulkes estimate   =   -1540.62992666 Ry
     estimated scf accuracy    <       0.00034856 Ry

     total magnetization       =     1.00 Bohr mag/cell
     absolute magnetization    =     1.21 Bohr mag/cell

     iteration #  4     ecut=     5.00 Ry     beta= 0.70
     CG style diagonalization
     ethr =  8.91E-08,  avg # of iterations =  3.6

     negative rho (up, down):  1.069E+01 6.752E-04

     total cpu time spent up to now is      588.9 secs

     total energy              =   -1540.62992442 Ry
     Harris-Foulkes estimate   =   -1540.62995071 Ry
     estimated scf accuracy    <       0.00012203 Ry

     total magnetization       =     1.00 Bohr mag/cell
     absolute magnetization    =     1.21 Bohr mag/cell

     iteration #  5     ecut=     5.00 Ry     beta= 0.70
     CG style diagonalization
     ethr =  3.12E-08,  avg # of iterations =  3.4

     negative rho (up, down):  1.069E+01 6.832E-04
 
     Magnetic moment per site:
     atom:    1    charge:    0.8225    magn:    0.0000    constr:    0.0000
     atom:    2    charge:    0.7937    magn:    0.0002    constr:    0.0000
     atom:    3    charge:    0.7918    magn:    0.0007    constr:    0.0000
     atom:    4    charge:    0.7835    magn:   -0.0000    constr:    0.0000
     atom:    5    charge:    0.7964    magn:    0.0000    constr:    0.0000
     atom:    6    charge:    0.7997    magn:    0.0001    constr:    0.0000
     atom:    7    charge:    0.8234    magn:   -0.0000    constr:    0.0000
     atom:    8    charge:    0.8213    magn:    0.0001    constr:    0.0000
     atom:    9    charge:    0.7974    magn:   -0.0002    constr:    0.0000
     atom:   10    charge:    0.7700    magn:    0.0021    constr:    0.0000
     atom:   11    charge:    0.7515    magn:    0.0004    constr:    0.0000
     atom:   12    charge:    0.7403    magn:    0.0001    constr:    0.0000
     atom:   13    charge:    0.7784    magn:   -0.0000    constr:    0.0000
     atom:   14    charge:    0.7997    magn:    0.0001    constr:    0.0000
     atom:   15    charge:    0.8385    magn:   -0.0001    constr:    0.0000
     atom:   16    charge:    0.8214    magn:    0.0001    constr:    0.0000
     atom:   17    charge:    0.7336    magn:    0.0002    constr:    0.0000
     atom:   18    charge:    0.7610    magn:    0.0044    constr:    0.0000
     atom:   19    charge:    0.7633    magn:   -0.0004    constr:    0.0000
     atom:   20    charge:    0.7403    magn:    0.0001    constr:    0.0000
     atom:   21    charge:    0.7964    magn:    0.0000    constr:    0.0000
     atom:   22    charge:    0.8188    magn:    0.0000    constr:    0.0000
     atom:   23    charge:    0.8351    magn:    0.0003    constr:    0.0000
     atom:   24    charge:    0.8186    magn:   -0.0003    constr:    0.0000
     atom:   25    charge:    1.1006    magn:   -0.0053    constr:    0.0000
     atom:   26    charge:    0.7610    magn:    0.0044    constr:    0.0000
     atom:   27    charge:    0.7515    magn:    0.0004    constr:    0.0000
     atom:   28    charge:    0.7834    magn:   -0.0000    constr:    0.0000
     atom:   29    charge:    0.8188    magn:    0.0000    constr:    0.0000
     atom:   30    charge:    0.8540    magn:    0.0000    constr:    0.0000
     atom:   31    charge:    0.8546    magn:   -0.0002    constr:    0.0000
     atom:   32    charge:    0.8186    magn:   -0.0003    constr:    0.0000
     atom:   33    charge:    0.7336    magn:    0.0002    constr:    0.0000
     atom:   34    charge:    0.7700    magn:    0.0021    constr:    0.0000
     atom:   35    charge:    0.7918    magn:    0.0007    constr:    0.0000
     atom:   36    charge:    0.8323    magn:    0.0003    constr:    0.0000
     atom:   37    charge:    0.8375    magn:   -0.0000    constr:    0.0000
     atom:   38    charge:    0.8540    magn:    0.0000    constr:    0.0000
     atom:   39    charge:    0.8351    magn:    0.0002    constr:    0.0000
     atom:   40    charge:    0.8214    magn:    0.0001    constr:    0.0000
     atom:   41    charge:    0.7974    magn:   -0.0002    constr:    0.0000
     atom:   42    charge:    0.7937    magn:    0.0002    constr:    0.0000
     atom:   43    charge:    0.8174    magn:   -0.0000    constr:    0.0000
     atom:   44    charge:    0.8323    magn:    0.0003    constr:    0.0000
     atom:   45    charge:    0.8188    magn:    0.0000    constr:    0.0000
     atom:   46    charge:    0.8188    magn:    0.0000    constr:    0.0000
     atom:   47    charge:    0.8385    magn:   -0.0001    constr:    0.0000
     atom:   48    charge:    0.8213    magn:    0.0001    constr:    0.0000
     atom:   49    charge:    0.8225    magn:    0.0000    constr:    0.0000
     atom:   50    charge:    1.5142    magn:    0.0002    constr:    0.0000
     atom:   51    charge:    1.5039    magn:   -0.0000    constr:    0.0000
     atom:   52    charge:    1.4987    magn:    0.0008    constr:    0.0000
     atom:   53    charge:    1.4749    magn:    0.0000    constr:    0.0000
     atom:   54    charge:    1.4714    magn:    0.0000    constr:    0.0000
     atom:   55    charge:    1.5030    magn:    0.0000    constr:    0.0000
     atom:   56    charge:    1.5038    magn:   -0.0000    constr:    0.0000
     atom:   57    charge:    1.4619    magn:    0.0001    constr:    0.0000
     atom:   58    charge:    1.4670    magn:    0.0012    constr:    0.0000
     atom:   59    charge:    1.4998    magn:    0.0015    constr:    0.0000
     atom:   60    charge:    1.4964    magn:    0.0027    constr:    0.0000
     atom:   61    charge:    1.5206    magn:    0.0003    constr:    0.0000
     atom:   62    charge:    1.5066    magn:   -0.0000    constr:    0.0000
     atom:   63    charge:    1.5030    magn:    0.0000    constr:    0.0000
     atom:   64    charge:    1.4496    magn:    0.0000    constr:    0.0000
     atom:   65    charge:    1.4348    magn:    0.0001    constr:    0.0000
     atom:   66    charge:    1.4634    magn:    0.0037    constr:    0.0000
     atom:   67    charge:    1.1190    magn:    0.0337    constr:    0.0000
     atom:   68    charge:    1.4639    magn:   -0.0006    constr:    0.0000
     atom:   69    charge:    1.5206    magn:    0.0003    constr:    0.0000
     atom:   70    charge:    1.4714    magn:    0.0000    constr:    0.0000
     atom:   71    charge:    1.4348    magn:    0.0000    constr:    0.0000
     atom:   72    charge:    1.3680    magn:    0.0001    constr:    0.0000
     atom:   73    charge:    1.3581    magn:    0.0004    constr:    0.0000
     atom:   74    charge:    1.3997    magn:   -0.0007    constr:    0.0000
     atom:   75    charge:    1.1191    magn:    0.0337    constr:    0.0000
     atom:   76    charge:    1.4964    magn:    0.0027    constr:    0.0000
     atom:   77    charge:    1.4749    magn:    0.0000    constr:    0.0000
     atom:   78    charge:    1.4449    magn:    0.0000    constr:    0.0000
     atom:   79    charge:    1.3617    magn:   -0.0000    constr:    0.0000
     atom:   80    charge:    1.3437    magn:   -0.0000    constr:    0.0000
     atom:   81    charge:    1.3581    magn:    0.0004    constr:    0.0000
     atom:   82    charge:    1.4634    magn:    0.0038    constr:    0.0000
     atom:   83    charge:    1.4998    magn:    0.0014    constr:    0.0000
     atom:   84    charge:    1.4987    magn:    0.0008    constr:    0.0000
     atom:   85    charge:    1.4624    magn:    0.0001    constr:    0.0000
     atom:   86    charge:    1.4207    magn:   -0.0000    constr:    0.0000
     atom:   87    charge:    1.3617    magn:   -0.0000    constr:    0.0000
     atom:   88    charge:    1.3680    magn:    0.0001    constr:    0.0000
     atom:   89    charge:    1.4348    magn:    0.0001    constr:    0.0000
     atom:   90    charge:    1.4670    magn:    0.0012    constr:    0.0000
     atom:   91    charge:    1.5039    magn:   -0.0000    constr:    0.0000
     atom:   92    charge:    1.5166    magn:   -0.0000    constr:    0.0000
     atom:   93    charge:    1.4624    magn:    0.0002    constr:    0.0000
     atom:   94    charge:    1.4449    magn:    0.0000    constr:    0.0000
     atom:   95    charge:    1.4348    magn:    0.0000    constr:    0.0000
     atom:   96    charge:    1.4496    magn:    0.0000    constr:    0.0000
     atom:   97    charge:    1.4619    magn:    0.0001    constr:    0.0000
     atom:   98    charge:    1.5142    magn:    0.0002    constr:    0.0000

     total cpu time spent up to now is      590.3 secs

     End of self-consistent calculation

 ------ SPIN UP ------------


          k = 0.0000 0.0000 0.0000 (  3407 PWs)   bands (ev):

   -35.3123 -35.1944 -35.0573 -35.0468 -35.0258 -34.9654 -34.8683 -34.4626
   -34.2589 -34.2459 -34.2429 -34.1439 -34.1109 -34.0073 -33.8713 -33.8623
   -33.8442 -33.6736 -33.6112 -33.0942 -32.9044 -32.9035 -32.8997 -32.8856
   -32.8831 -32.8807 -32.8790 -32.8595 -32.8384 -32.6420 -32.6253 -32.5101
   -32.4594 -32.4558 -32.4371 -32.2462 -32.2194 -32.0386 -32.0284 -32.0203
   -32.0090 -31.9430 -31.9234 -31.8695 -31.8593 -31.8496 -31.8477 -27.0395
   -23.3312 -19.3057 -17.7686 -17.7602 -17.7430 -17.7195 -17.7100 -17.7020
   -17.6361 -17.6108 -17.5879 -17.5489 -17.4210 -17.0795 -16.9148 -16.9119
   -16.8865 -16.7749 -16.7653 -16.5522 -16.2517 -16.2235 -16.2217 -16.2184
   -16.2089 -16.2022 -16.2013 -16.1653 -16.0958 -15.9221 -15.7082 -15.1204
   -14.6356 -14.6332 -14.6225 -14.5885 -14.4387 -14.2893 -14.2734 -14.2006
   -14.1687 -14.0824 -13.9977 -13.1517 -13.0199 -12.9108 -12.8994 -12.8939
   -12.8815 -12.8637 -12.8231 -12.7884 -12.7580 -12.6713 -12.6213 -12.5610
   -12.3482 -12.2732 -12.2370 -12.2166 -12.2051 -12.1973 -12.1888 -12.1591
   -12.1114 -12.0658 -12.0399 -12.0295 -12.0109 -11.9852 -11.9603 -11.9591
   -11.8351 -11.6808 -10.9432 -10.9420 -10.9324 -10.9244 -10.8200 -10.7648
   -10.6907 -10.6805 -10.6703 -10.6284 -10.5720 -10.5442 -10.3876 -10.3375
   -10.3236 -10.3096 -10.2690 -10.2643 -10.2382 -10.2314 -10.1566 -10.0938
   -10.0664 -10.0401  -9.9965  -9.9963  -9.9897  -9.9713  -9.8715  -9.8653
    -9.8318  -9.8318  -9.8199  -9.5882  -9.4769  -9.1097  -8.7290  -8.7078
    -8.6992  -8.5557  -8.1149  -8.0039  -7.8782  -7.8266  -7.8264  -7.8252
    -7.8183  -7.8104  -7.8047  -7.7947  -7.7791  -7.7511  -7.5841  -7.4703
    -6.9812  -6.9565  -6.8723  -6.7828  -6.7777  -6.7611  -6.6673  -6.5398
    -5.7577  -5.7252  -5.7083  -5.7051  -5.6314  -5.6018  -5.4704  -5.4305
    -5.4241  -5.4218  -5.1970  -4.3228  -1.8638  -1.0717  -1.0611  -1.0532
    -1.0424  -1.0312  -0.9720  -0.7990  -0.4068  -0.1683  -0.1671  -0.1620
    -0.1579  -0.1509  -0.1427   0.2633   0.2635   0.2659   0.2725   0.2751
     0.2878   0.3581   0.3604   0.3615   0.3790   0.3890   0.3916   0.4869
     0.6412   0.6715   0.6815   0.6910   0.7012   0.7198   0.7402   0.8708
     0.8802   0.8960   0.9084   0.9276   0.9374   1.0473   1.1189   1.1333
     1.1368   1.1453   1.1730   1.2217   1.2468

 ------ SPIN DOWN ----------


          k = 0.0000 0.0000 0.0000 (  3407 PWs)   bands (ev):

   -35.3073 -35.1912 -35.0543 -35.0442 -35.0244 -34.9548 -34.8620 -34.4582
   -34.2540 -34.2389 -34.2359 -34.1390 -34.1081 -34.0054 -33.8632 -33.8542
   -33.8400 -33.6607 -33.6054 -33.0841 -32.9023 -32.8979 -32.8954 -32.8831
   -32.8778 -32.8745 -32.8696 -32.8469 -32.8324 -32.6374 -32.6200 -32.5028
   -32.4544 -32.4506 -32.4322 -32.2363 -32.2137 -32.0311 -32.0229 -32.0129
   -32.0046 -31.9383 -31.9154 -31.8673 -31.8559 -31.8450 -31.8430 -26.8281
   -22.8690 -19.1687 -17.7655 -17.7550 -17.7404 -17.7180 -17.7065 -17.6991
   -17.6337 -17.6078 -17.5840 -17.5329 -17.4107 -17.0714 -16.9130 -16.9095
   -16.8831 -16.7663 -16.7534 -16.5375 -16.2460 -16.2211 -16.2192 -16.2157
   -16.2063 -16.2000 -16.1954 -16.1579 -16.0779 -15.9006 -15.6762 -15.1102
   -14.6314 -14.6311 -14.6184 -14.5827 -14.4275 -14.2806 -14.2678 -14.1915
   -14.1599 -14.0721 -13.9819 -13.1451 -13.0108 -12.9084 -12.8939 -12.8896
   -12.8778 -12.8597 -12.8186 -12.7806 -12.7456 -12.6635 -12.6088 -12.5433
   -12.3457 -12.2646 -12.2335 -12.2145 -12.2026 -12.1950 -12.1853 -12.1526
   -12.1005 -12.0449 -12.0312 -12.0204 -12.0048 -11.9627 -11.9428 -11.9194
   -11.7360 -11.6609 -10.9409 -10.9366 -10.9303 -10.9183 -10.8115 -10.7397
   -10.6736 -10.6569 -10.6546 -10.6156 -10.5342 -10.4856 -10.3832 -10.3351
   -10.3210 -10.3053 -10.2668 -10.2619 -10.2358 -10.2276 -10.1451 -10.0793
   -10.0566 -10.0353  -9.9819  -9.9731  -9.9719  -9.9548  -9.8680  -9.8464
    -9.8292  -9.7396  -9.7059  -9.5483  -9.4515  -9.0756  -8.7257  -8.7074
    -8.6949  -8.5185  -8.0736  -7.9692  -7.8193  -7.8181  -7.8110  -7.8099
    -7.8005  -7.7989  -7.7866  -7.7651  -7.7263  -7.7178  -7.4640  -7.3706
    -6.9232  -6.8840  -6.8439  -6.7596  -6.7536  -6.7395  -6.5524  -6.4326
    -5.7245  -5.6988  -5.6851  -5.6848  -5.5887  -5.5823  -5.4610  -5.4149
    -5.4033  -5.4031  -4.9187  -2.6117  -1.8578  -1.0705  -1.0593  -1.0508
    -1.0318  -1.0284  -0.9498  -0.7972  -0.4055  -0.1653  -0.1640  -0.1579
    -0.1567  -0.1506  -0.1412   0.2638   0.2642   0.2667   0.2733   0.2758
     0.2887   0.3612   0.3645   0.3648   0.3831   0.4018   0.4036   0.5903
     0.6442   0.6914   0.6958   0.7061   0.7096   0.7538   0.7645   0.8765
     0.8820   0.9007   0.9122   0.9439   0.9497   1.0853   1.1187   1.1324
     1.1363   1.1540   1.2010   1.2324   1.2627

     highest occupied, lowest unoccupied level (ev):    -4.3228   -2.6117

!    total energy              =   -1540.62997096 Ry
     Harris-Foulkes estimate   =   -1540.62995287 Ry
     estimated scf accuracy    <       0.00000097 Ry

     total magnetization       =     1.00 Bohr mag/cell
     absolute magnetization    =     1.21 Bohr mag/cell

     convergence has been achieved in   5 iterations

     Using ACE for calculation of exact exchange

     total energy              =   -1540.65607093 Ry
     Harris-Foulkes estimate   =   -1540.65605285 Ry
     est. exchange err (dexx)  =       0.02609997 Ry
     - averaged Fock potential =     169.46937815 Ry
     + Fock energy (ACE)       =     -84.87406343 Ry

     EXX: now go back to refine exchange calculation

     total cpu time spent up to now is     1145.9 secs

     Self-consistent Calculation

     iteration #  1     ecut=     5.00 Ry     beta= 0.70
     CG style diagonalization
     ethr =  3.12E-08,  avg # of iterations =  9.8

     negative rho (up, down):  1.070E+01 6.430E-04

     total cpu time spent up to now is     1151.1 secs

     total energy              =   -1540.66045472 Ry
     Harris-Foulkes estimate   =   -1540.66046708 Ry
     estimated scf accuracy    <       0.00046657 Ry

     total magnetization       =     1.00 Bohr mag/cell
     absolute magnetization    =     1.23 Bohr mag/cell

     iteration #  2     ecut=     5.00 Ry     beta= 0.70
     CG style diagonalization
     ethr =  1.19E-07,  avg # of iterations =  3.3

     negative rho (up, down):  1.070E+01 6.430E-04

     total cpu time spent up to now is     1152.4 secs

     total energy              =   -1540.66054354 Ry
     Harris-Foulkes estimate   =   -1540.66051279 Ry
     estimated scf accuracy    <       0.00002012 Ry

     total magnetization       =     1.00 Bohr mag/cell
     absolute magnetization    =     1.23 Bohr mag/cell

     iteration #  3     ecut=     5.00 Ry     beta= 0.70
     CG style diagonalization
     ethr =  5.15E-09,  avg # of iterations =  3.7

     negative rho (up, down):  1.070E+01 6.430E-04

     total cpu time spent up to now is     1154.0 secs

     total energy              =   -1540.66056333 Ry
     Harris-Foulkes estimate   =   -1540.66055733 Ry
     estimated scf accuracy    <       0.00000805 Ry

     total magnetization       =     1.00 Bohr mag/cell
     absolute magnetization    =     1.23 Bohr mag/cell

     iteration #  4     ecut=     5.00 Ry     beta= 0.70
     CG style diagonalization
     ethr =  2.06E-09,  avg # of iterations =  3.5

     negative rho (up, down):  1.070E+01 6.430E-04
 
     Magnetic moment per site:
     atom:    1    charge:    0.8211    magn:   -0.0000    constr:    0.0000
     atom:    2    charge:    0.7923    magn:    0.0002    constr:    0.0000
     atom:    3    charge:    0.7903    magn:    0.0006    constr:    0.0000
     atom:    4    charge:    0.7820    magn:   -0.0000    constr:    0.0000
     atom:    5    charge:    0.7949    magn:    0.0000    constr:    0.0000
     atom:    6    charge:    0.7983    magn:    0.0001    constr:    0.0000
     atom:    7    charge:    0.8220    magn:   -0.0000    constr:    0.0000
     atom:    8    charge:    0.8199    magn:    0.0001    constr:    0.0000
     atom:    9    charge:    0.7960    magn:   -0.0002    constr:    0.0000
     atom:   10    charge:    0.7684    magn:    0.0023    constr:    0.0000
     atom:   11    charge:    0.7500    magn:    0.0005    constr:    0.0000
     atom:   12    charge:    0.7388    magn:    0.0001    constr:    0.0000
     atom:   13    charge:    0.7770    magn:   -0.0000    constr:    0.0000
     atom:   14    charge:    0.7983    magn:    0.0001    constr:    0.0000
     atom:   15    charge:    0.8371    magn:   -0.0001    constr:    0.0000
     atom:   16    charge:    0.8200    magn:    0.0001    constr:    0.0000
     atom:   17    charge:    0.7324    magn:    0.0002    constr:    0.0000
     atom:   18    charge:    0.7596    magn:    0.0040    constr:    0.0000
     atom:   19    charge:    0.7618    magn:   -0.0004    constr:    0.0000
     atom:   20    charge:    0.7388    magn:    0.0001    constr:    0.0000
     atom:   21    charge:    0.7949    magn:    0.0000    constr:    0.0000
     atom:   22    charge:    0.8174    magn:    0.0000    constr:    0.0000
     atom:   23    charge:    0.8338    magn:    0.0002    constr:    0.0000
     atom:   24    charge:    0.8173    magn:   -0.0004    constr:    0.0000
     atom:   25    charge:    1.0987    magn:   -0.0063    constr:    0.0000
     atom:   26    charge:    0.7597    magn:    0.0040    constr:    0.0000
     atom:   27    charge:    0.7500    magn:    0.0005    constr:    0.0000
     atom:   28    charge:    0.7820    magn:   -0.0000    constr:    0.0000
     atom:   29    charge:    0.8174    magn:    0.0000    constr:    0.0000
     atom:   30    charge:    0.8526    magn:    0.0000    constr:    0.0000
     atom:   31    charge:    0.8533    magn:   -0.0002    constr:    0.0000
     atom:   32    charge:    0.8173    magn:   -0.0004    constr:    0.0000
     atom:   33    charge:    0.7325    magn:    0.0002    constr:    0.0000
     atom:   34    charge:    0.7685    magn:    0.0023    constr:    0.0000
     atom:   35    charge:    0.7903    magn:    0.0006    constr:    0.0000
     atom:   36    charge:    0.8309    magn:    0.0003    constr:    0.0000
     atom:   37    charge:    0.8362    magn:   -0.0000    constr:    0.0000
     atom:   38    charge:    0.8526    magn:    0.0000    constr:    0.0000
     atom:   39    charge:    0.8338    magn:    0.0002    constr:    0.0000
     atom:   40    charge:    0.8200    magn:    0.0001    constr:    0.0000
     atom:   41    charge:    0.7960    magn:   -0.0002    constr:    0.0000
     atom:   42    charge:    0.7923    magn:    0.0002    constr:    0.0000
     atom:   43    charge:    0.8161    magn:   -0.0000    constr:    0.0000
     atom:   44    charge:    0.8309    magn:    0.0003    constr:    0.0000
     atom:   45    charge:    0.8174    magn:    0.0000    constr:    0.0000
     atom:   46    charge:    0.8174    magn:    0.0000    constr:    0.0000
     atom:   47    charge:    0.8371    magn:   -0.0001    constr:    0.0000
     atom:   48    charge:    0.8199    magn:    0.0001    constr:    0.0000
     atom:   49    charge:    0.8211    magn:   -0.0000    constr:    0.0000
     atom:   50    charge:    1.5139    magn:    0.0002    constr:    0.0000
     atom:   51    charge:    1.5035    magn:   -0.0000    constr:    0.0000
     atom:   52    charge:    1.4984    magn:    0.0007    constr:    0.0000
     atom:   53    charge:    1.4745    magn:   -0.0000    constr:    0.0000
     atom:   54    charge:    1.4710    magn:    0.0000    constr:    0.0000
     atom:   55    charge:    1.5027    magn:    0.0000    constr:    0.0000
     atom:   56    charge:    1.5034    magn:   -0.0000    constr:    0.0000
     atom:   57    charge:    1.4616    magn:    0.0001    constr:    0.0000
     atom:   58    charge:    1.4667    magn:    0.0011    constr:    0.0000
     atom:   59    charge:    1.4994    magn:    0.0014    constr:    0.0000
     atom:   60    charge:    1.4962    magn:    0.0026    constr:    0.0000
     atom:   61    charge:    1.5203    magn:    0.0003    constr:    0.0000
     atom:   62    charge:    1.5063    magn:   -0.0000    constr:    0.0000
     atom:   63    charge:    1.5027    magn:    0.0000    constr:    0.0000
     atom:   64    charge:    1.4492    magn:    0.0000    constr:    0.0000
     atom:   65    charge:    1.4344    magn:    0.0001    constr:    0.0000
     atom:   66    charge:    1.4631    magn:    0.0036    constr:    0.0000
     atom:   67    charge:    1.1184    magn:    0.0348    constr:    0.0000
     atom:   68    charge:    1.4635    magn:   -0.0005    constr:    0.0000
     atom:   69    charge:    1.5203    magn:    0.0003    constr:    0.0000
     atom:   70    charge:    1.4710    magn:    0.0000    constr:    0.0000
     atom:   71    charge:    1.4344    magn:    0.0000    constr:    0.0000
     atom:   72    charge:    1.3677    magn:    0.0001    constr:    0.0000
     atom:   73    charge:    1.3577    magn:    0.0003    constr:    0.0000
     atom:   74    charge:    1.3992    magn:   -0.0007    constr:    0.0000
     atom:   75    charge:    1.1184    magn:    0.0348    constr:    0.0000
     atom:   76    charge:    1.4962    magn:    0.0026    constr:    0.0000
     atom:   77    charge:    1.4745    magn:   -0.0000    constr:    0.0000
     atom:   78    charge:    1.4446    magn:    0.0000    constr:    0.0000
     atom:   79    charge:    1.3614    magn:   -0.0000    constr:    0.0000
     atom:   80    charge:    1.3433    magn:   -0.0000    constr:    0.0000
     atom:   81    charge:    1.3577    magn:    0.0003    constr:    0.0000
     atom:   82    charge:    1.4631    magn:    0.0036    constr:    0.0000
     atom:   83    charge:    1.4994    magn:    0.0014    constr:    0.0000
     atom:   84    charge:    1.4984    magn:    0.0007    constr:    0.0000
     atom:   85    charge:    1.4620    magn:    0.0001    constr:    0.0000
     atom:   86    charge:    1.4204    magn:   -0.0000    constr:    0.0000
     atom:   87    charge:    1.3614    magn:   -0.0000    constr:    0.0000
     atom:   88    charge:    1.3677    magn:    0.0001    constr:    0.0000
     atom:   89    charge:    1.4344    magn:    0.0001    constr:    0.0000
     atom:   90    charge:    1.4667    magn:    0.0011    constr:    0.0000
     atom:   91    charge:    1.5035    magn:   -0.0000    constr:    0.0000
     atom:   92    charge:    1.5162    magn:   -0.0000    constr:    0.0000
     atom:   93    charge:    1.4620    magn:    0.0001    constr:    0.0000
     atom:   94    charge:    1.4446    magn:    0.0000    constr:    0.0000
     atom:   95    charge:    1.4344    magn:    0.0000    constr:    0.0000
     atom:   96    charge:    1.4492    magn:    0.0000    constr:    0.0000
     atom:   97    charge:    1.4616    magn:    0.0001    constr:    0.0000
     atom:   98    charge:    1.5139    magn:    0.0002    constr:    0.0000

     total cpu time spent up to now is     1155.4 secs

     End of self-consistent calculation

 ------ SPIN UP ------------


          k = 0.0000 0.0000 0.0000 (  3407 PWs)   bands (ev):

   -35.2835 -35.1652 -35.0283 -35.0158 -34.9958 -34.9343 -34.8401 -34.4333
   -34.2297 -34.2159 -34.2141 -34.1145 -34.0807 -33.9777 -33.8413 -33.8323
   -33.8151 -33.6435 -33.5831 -33.0649 -32.8758 -32.8742 -32.8702 -32.8574
   -32.8540 -32.8505 -32.8492 -32.8308 -32.8093 -32.6132 -32.5963 -32.4810
   -32.4314 -32.4258 -32.4077 -32.2168 -32.1906 -32.0093 -31.9991 -31.9905
   -31.9804 -31.9149 -31.8936 -31.8409 -31.8312 -31.8205 -31.8168 -27.0123
   -23.3168 -19.2853 -17.7548 -17.7461 -17.7294 -17.7046 -17.6957 -17.6855
   -17.6187 -17.5934 -17.5705 -17.5321 -17.4061 -17.0688 -16.9081 -16.9066
   -16.8793 -16.7673 -16.7583 -16.5398 -16.2371 -16.2094 -16.2075 -16.2039
   -16.1942 -16.1876 -16.1868 -16.1510 -16.0821 -15.9083 -15.6942 -15.1085
   -14.6212 -14.6170 -14.6056 -14.5744 -14.4235 -14.2754 -14.2589 -14.1865
   -14.1545 -14.0688 -13.9844 -13.1472 -13.0135 -12.9041 -12.8907 -12.8826
   -12.8739 -12.8633 -12.8249 -12.7815 -12.7526 -12.6669 -12.6152 -12.5587
   -12.3511 -12.2753 -12.2410 -12.2200 -12.2076 -12.2015 -12.1924 -12.1622
   -12.1133 -12.0643 -12.0386 -12.0268 -12.0081 -11.9878 -11.9646 -11.9570
   -11.8337 -11.6867 -10.9625 -10.9625 -10.9505 -10.9430 -10.8390 -10.7619
   -10.6883 -10.6787 -10.6687 -10.6454 -10.5706 -10.5424 -10.3982 -10.3487
   -10.3347 -10.3158 -10.2743 -10.2600 -10.2357 -10.2349 -10.1670 -10.0916
   -10.0727 -10.0495 -10.0003  -9.9946  -9.9945  -9.9702  -9.8907  -9.8785
    -9.8511  -9.8314  -9.8189  -9.6071  -9.4900  -9.1293  -8.7495  -8.7275
    -8.7198  -8.5773  -8.1359  -8.0036  -7.9024  -7.8296  -7.8293  -7.8278
    -7.8204  -7.8142  -7.8065  -7.7974  -7.7817  -7.7538  -7.5890  -7.4752
    -7.0078  -6.9818  -6.8809  -6.7916  -6.7875  -6.7710  -6.6775  -6.5515
    -5.7738  -5.7420  -5.7254  -5.7228  -5.6483  -5.6204  -5.4885  -5.4483
    -5.4419  -5.4399  -5.2199  -4.3574  -1.8418  -1.0592  -1.0493  -1.0406
    -1.0302  -1.0204  -0.9621  -0.8008  -0.4062  -0.1694  -0.1687  -0.1637
    -0.1594  -0.1530  -0.1455   0.2627   0.2629   0.2652   0.2720   0.2745
     0.2871   0.3653   0.3674   0.3687   0.3855   0.3956   0.3975   0.5131
     0.6482   0.6961   0.6973   0.7104   0.7167   0.7464   0.7658   0.8807
     0.8893   0.9054   0.9172   0.9358   0.9455   1.0654   1.1168   1.1313
     1.1324   1.1370   1.1617   1.2452   1.2719

 ------ SPIN DOWN ----------


          k = 0.0000 0.0000 0.0000 (  3407 PWs)   bands (ev):

   -35.2795 -35.1629 -35.0257 -35.0136 -34.9946 -34.9246 -34.8346 -34.4298
   -34.2253 -34.2106 -34.2067 -34.1100 -34.0783 -33.9761 -33.8338 -33.8250
   -33.8112 -33.6314 -33.5778 -33.0561 -32.8742 -32.8690 -32.8662 -32.8553
   -32.8486 -32.8450 -32.8410 -32.8192 -32.8038 -32.6092 -32.5916 -32.4744
   -32.4269 -32.4213 -32.4033 -32.2077 -32.1852 -32.0026 -31.9945 -31.9839
   -31.9764 -31.9108 -31.8862 -31.8392 -31.8283 -31.8162 -31.8126 -26.7988
   -22.8282 -19.1453 -17.7520 -17.7411 -17.7270 -17.7033 -17.6923 -17.6827
   -17.6167 -17.5904 -17.5667 -17.5169 -17.3959 -17.0608 -16.9065 -16.9047
   -16.8761 -16.7588 -16.7462 -16.5246 -16.2320 -16.2072 -16.2053 -16.2015
   -16.1921 -16.1857 -16.1810 -16.1436 -16.0652 -15.8862 -15.6610 -15.0983
   -14.6174 -14.6151 -14.6021 -14.5685 -14.4136 -14.2663 -14.2541 -14.1783
   -14.1457 -14.0584 -13.9687 -13.1412 -13.0050 -12.9022 -12.8857 -12.8776
   -12.8708 -12.8598 -12.8205 -12.7736 -12.7412 -12.6588 -12.6034 -12.5415
   -12.3489 -12.2670 -12.2376 -12.2181 -12.2054 -12.1995 -12.1891 -12.1563
   -12.1026 -12.0458 -12.0308 -12.0188 -12.0029 -11.9646 -11.9473 -11.9169
   -11.7338 -11.6670 -10.9617 -10.9558 -10.9487 -10.9372 -10.8307 -10.7402
   -10.6730 -10.6571 -10.6541 -10.6325 -10.5325 -10.4831 -10.3947 -10.3466
   -10.3323 -10.3119 -10.2720 -10.2579 -10.2330 -10.2312 -10.1564 -10.0797
   -10.0637 -10.0447  -9.9933  -9.9725  -9.9717  -9.9550  -9.8876  -9.8582
    -9.8486  -9.7359  -9.7027  -9.5657  -9.4638  -9.0939  -8.7464  -8.7271
    -8.7158  -8.5395  -8.0926  -7.9781  -7.8393  -7.8243  -7.8147  -7.8145
    -7.8048  -7.8030  -7.7903  -7.7699  -7.7349  -7.7241  -7.4682  -7.3753
    -6.9476  -6.9059  -6.8563  -6.7734  -6.7663  -6.7517  -6.5604  -6.4430
    -5.7450  -5.7198  -5.7053  -5.7051  -5.6060  -5.6019  -5.4820  -5.4368
    -5.4240  -5.4237  -4.9311  -2.5420  -1.8360  -1.0582  -1.0475  -1.0384
    -1.0199  -1.0178  -0.9404  -0.7991  -0.4049  -0.1665  -0.1656  -0.1601
    -0.1583  -0.1527  -0.1441   0.2633   0.2634   0.2659   0.2728   0.2751
     0.2880   0.3680   0.3716   0.3718   0.3893   0.4083   0.4093   0.6101
     0.6512   0.7006   0.7202   0.7257   0.7319   0.7785   0.7892   0.8863
     0.8910   0.9098   0.9206   0.9521   0.9575   1.0912   1.1166   1.1302
     1.1332   1.1440   1.1977   1.2549   1.2867

     highest occupied, lowest unoccupied level (ev):    -4.3574   -2.5420

!    total energy              =   -1540.66057570 Ry
     Harris-Foulkes estimate   =   -1540.66056543 Ry
     estimated scf accuracy    <       0.00000040 Ry

     total magnetization       =     1.00 Bohr mag/cell
     absolute magnetization    =     1.23 Bohr mag/cell

     convergence has been achieved in   4 iterations

     Using ACE for calculation of exact exchange

     total energy              =   -1540.66137984 Ry
     Harris-Foulkes estimate   =   -1540.66136958 Ry
     est. exchange err (dexx)  =       0.00080414 Ry
     - averaged Fock potential =     169.79741486 Ry
     + Fock energy (ACE)       =     -84.92415558 Ry

     EXX: now go back to refine exchange calculation

     total cpu time spent up to now is     1708.8 secs

     Self-consistent Calculation

     iteration #  1     ecut=     5.00 Ry     beta= 0.70
     CG style diagonalization
     ethr =  2.06E-09,  avg # of iterations = 11.9

     negative rho (up, down):  1.070E+01 6.350E-04

     total cpu time spent up to now is     1714.8 secs

     total energy              =   -1540.66161237 Ry
     Harris-Foulkes estimate   =   -1540.66158038 Ry
     estimated scf accuracy    <       0.00003585 Ry

     total magnetization       =     1.00 Bohr mag/cell
     absolute magnetization    =     1.24 Bohr mag/cell

     iteration #  2     ecut=     5.00 Ry     beta= 0.70
     CG style diagonalization
     ethr =  9.17E-09,  avg # of iterations =  3.3

     negative rho (up, down):  1.070E+01 6.430E-04

     total cpu time spent up to now is     1716.2 secs

     total energy              =   -1540.66162239 Ry
     Harris-Foulkes estimate   =   -1540.66161772 Ry
     estimated scf accuracy    <       0.00000200 Ry

     total magnetization       =     1.00 Bohr mag/cell
     absolute magnetization    =     1.24 Bohr mag/cell

     iteration #  3     ecut=     5.00 Ry     beta= 0.70
     CG style diagonalization
     ethr =  5.10E-10,  avg # of iterations =  3.7

     negative rho (up, down):  1.070E+01 6.671E-04

     total cpu time spent up to now is     1717.8 secs

     total energy              =   -1540.66162395 Ry
     Harris-Foulkes estimate   =   -1540.66162398 Ry
     estimated scf accuracy    <       0.00000208 Ry

     total magnetization       =     1.00 Bohr mag/cell
     absolute magnetization    =     1.24 Bohr mag/cell

     iteration #  4     ecut=     5.00 Ry     beta= 0.70
     CG style diagonalization
     ethr =  5.10E-10,  avg # of iterations =  3.6

     negative rho (up, down):  1.070E+01 6.591E-04
 
     Magnetic moment per site:
[...]
   -10.0631 -10.0446  -9.9937  -9.9701  -9.9697  -9.9529  -9.8894  -9.8584
    -9.8503  -9.7328  -9.6999  -9.5672  -9.4642  -9.0952  -8.7478  -8.7286
    -8.7174  -8.5416  -8.0940  -7.9798  -7.8412  -7.8238  -7.8141  -7.8141
    -7.8043  -7.8027  -7.7898  -7.7699  -7.7363  -7.7245  -7.4681  -7.3748
    -6.9501  -6.9083  -6.8586  -6.7760  -6.7685  -6.7544  -6.5619  -6.4446
    -5.7505  -5.7255  -5.7106  -5.7101  -5.6108  -5.6068  -5.4868  -5.4424
    -5.4299  -5.4292  -4.9337  -2.5173  -1.8323  -1.0557  -1.0454  -1.0362
    -1.0182  -1.0163  -0.9392  -0.7996  -0.4048  -0.1669  -0.1662  -0.1606
    -0.1588  -0.1530  -0.1447   0.2632   0.2634   0.2659   0.2728   0.2750
     0.2878   0.3691   0.3727   0.3730   0.3903   0.4094   0.4102   0.6160
     0.6526   0.7023   0.7290   0.7341   0.7416   0.7872   0.7985   0.8882
     0.8926   0.9115   0.9221   0.9537   0.9589   1.0927   1.1159   1.1296
     1.1320   1.1409   1.1993   1.2638   1.2959

     highest occupied, lowest unoccupied level (ev):    -4.3743   -2.5173

!    total energy              =   -1540.66169802 Ry
     Harris-Foulkes estimate   =   -1540.66169700 Ry
     estimated scf accuracy    <       0.00000045 Ry

     total magnetization       =     1.00 Bohr mag/cell
     absolute magnetization    =     1.24 Bohr mag/cell

     convergence has been achieved in   2 iterations

     Using ACE for calculation of exact exchange

     total energy              =   -1540.66170220 Ry
     Harris-Foulkes estimate   =   -1540.66170118 Ry
     est. exchange err (dexx)  =       0.00000418 Ry
     - averaged Fock potential =     169.87422243 Ry
     + Fock energy (ACE)       =     -84.93858854 Ry

     EXX: now go back to refine exchange calculation

     total cpu time spent up to now is     2828.1 secs

     Self-consistent Calculation

     iteration #  1     ecut=     5.00 Ry     beta= 0.70
     CG style diagonalization
     ethr =  7.62E-10,  avg # of iterations =  3.9

     negative rho (up, down):  1.070E+01 6.269E-04

     total cpu time spent up to now is     2831.3 secs

     total energy              =   -1540.66170441 Ry
     Harris-Foulkes estimate   =   -1540.66170442 Ry
     estimated scf accuracy    <       0.00000227 Ry

     total magnetization       =     1.00 Bohr mag/cell
     absolute magnetization    =     1.24 Bohr mag/cell

     iteration #  2     ecut=     5.00 Ry     beta= 0.70
     CG style diagonalization
     ethr =  5.79E-10,  avg # of iterations =  3.7

     negative rho (up, down):  1.070E+01 6.430E-04

     total cpu time spent up to now is     2832.8 secs

     total energy              =   -1540.66170493 Ry
     Harris-Foulkes estimate   =   -1540.66170692 Ry
     estimated scf accuracy    <       0.00000372 Ry

     total magnetization       =     1.00 Bohr mag/cell
     absolute magnetization    =     1.24 Bohr mag/cell

     iteration #  3     ecut=     5.00 Ry     beta= 0.70
     CG style diagonalization
     ethr =  5.79E-10,  avg # of iterations =  3.6

     negative rho (up, down):  1.070E+01 6.430E-04
 
     Magnetic moment per site:
     atom:    1    charge:    0.8208    magn:   -0.0000    constr:    0.0000
     atom:    2    charge:    0.7920    magn:    0.0002    constr:    0.0000
     atom:    3    charge:    0.7899    magn:    0.0006    constr:    0.0000
     atom:    4    charge:    0.7816    magn:   -0.0000    constr:    0.0000
     atom:    5    charge:    0.7945    magn:    0.0000    constr:    0.0000
     atom:    6    charge:    0.7979    magn:    0.0001    constr:    0.0000
     atom:    7    charge:    0.8216    magn:   -0.0000    constr:    0.0000
     atom:    8    charge:    0.8196    magn:    0.0001    constr:    0.0000
     atom:    9    charge:    0.7956    magn:   -0.0002    constr:    0.0000
     atom:   10    charge:    0.7680    magn:    0.0024    constr:    0.0000
     atom:   11    charge:    0.7496    magn:    0.0005    constr:    0.0000
     atom:   12    charge:    0.7384    magn:    0.0001    constr:    0.0000
     atom:   13    charge:    0.7766    magn:   -0.0000    constr:    0.0000
     atom:   14    charge:    0.7979    magn:    0.0001    constr:    0.0000
     atom:   15    charge:    0.8368    magn:   -0.0001    constr:    0.0000
     atom:   16    charge:    0.8196    magn:    0.0001    constr:    0.0000
     atom:   17    charge:    0.7322    magn:    0.0002    constr:    0.0000
     atom:   18    charge:    0.7594    magn:    0.0038    constr:    0.0000
     atom:   19    charge:    0.7614    magn:   -0.0004    constr:    0.0000
     atom:   20    charge:    0.7384    magn:    0.0001    constr:    0.0000
     atom:   21    charge:    0.7945    magn:    0.0000    constr:    0.0000
     atom:   22    charge:    0.8170    magn:    0.0000    constr:    0.0000
     atom:   23    charge:    0.8335    magn:    0.0002    constr:    0.0000
     atom:   24    charge:    0.8170    magn:   -0.0004    constr:    0.0000
     atom:   25    charge:    1.0983    magn:   -0.0070    constr:    0.0000
     atom:   26    charge:    0.7594    magn:    0.0038    constr:    0.0000
     atom:   27    charge:    0.7496    magn:    0.0005    constr:    0.0000
     atom:   28    charge:    0.7816    magn:   -0.0000    constr:    0.0000
     atom:   29    charge:    0.8170    magn:    0.0000    constr:    0.0000
     atom:   30    charge:    0.8523    magn:    0.0000    constr:    0.0000
     atom:   31    charge:    0.8529    magn:   -0.0002    constr:    0.0000
     atom:   32    charge:    0.8170    magn:   -0.0004    constr:    0.0000
     atom:   33    charge:    0.7322    magn:    0.0002    constr:    0.0000
     atom:   34    charge:    0.7680    magn:    0.0024    constr:    0.0000
     atom:   35    charge:    0.7899    magn:    0.0006    constr:    0.0000
     atom:   36    charge:    0.8306    magn:    0.0003    constr:    0.0000
     atom:   37    charge:    0.8358    magn:   -0.0000    constr:    0.0000
     atom:   38    charge:    0.8523    magn:    0.0000    constr:    0.0000
     atom:   39    charge:    0.8335    magn:    0.0002    constr:    0.0000
     atom:   40    charge:    0.8196    magn:    0.0001    constr:    0.0000
     atom:   41    charge:    0.7956    magn:   -0.0002    constr:    0.0000
     atom:   42    charge:    0.7920    magn:    0.0002    constr:    0.0000
     atom:   43    charge:    0.8157    magn:   -0.0000    constr:    0.0000
     atom:   44    charge:    0.8306    magn:    0.0003    constr:    0.0000
     atom:   45    charge:    0.8170    magn:    0.0000    constr:    0.0000
     atom:   46    charge:    0.8170    magn:    0.0000    constr:    0.0000
     atom:   47    charge:    0.8368    magn:   -0.0001    constr:    0.0000
     atom:   48    charge:    0.8196    magn:    0.0001    constr:    0.0000
     atom:   49    charge:    0.8208    magn:   -0.0000    constr:    0.0000
     atom:   50    charge:    1.5140    magn:    0.0002    constr:    0.0000
     atom:   51    charge:    1.5036    magn:   -0.0000    constr:    0.0000
     atom:   52    charge:    1.4985    magn:    0.0006    constr:    0.0000
     atom:   53    charge:    1.4747    magn:   -0.0000    constr:    0.0000
     atom:   54    charge:    1.4712    magn:    0.0000    constr:    0.0000
     atom:   55    charge:    1.5029    magn:    0.0000    constr:    0.0000
     atom:   56    charge:    1.5036    magn:   -0.0000    constr:    0.0000
     atom:   57    charge:    1.4617    magn:    0.0001    constr:    0.0000
     atom:   58    charge:    1.4668    magn:    0.0011    constr:    0.0000
     atom:   59    charge:    1.4996    magn:    0.0014    constr:    0.0000
     atom:   60    charge:    1.4964    magn:    0.0026    constr:    0.0000
     atom:   61    charge:    1.5204    magn:    0.0003    constr:    0.0000
     atom:   62    charge:    1.5064    magn:   -0.0000    constr:    0.0000
     atom:   63    charge:    1.5029    magn:    0.0000    constr:    0.0000
     atom:   64    charge:    1.4494    magn:    0.0000    constr:    0.0000
     atom:   65    charge:    1.4345    magn:    0.0001    constr:    0.0000
     atom:   66    charge:    1.4633    magn:    0.0035    constr:    0.0000
     atom:   67    charge:    1.1185    magn:    0.0355    constr:    0.0000
     atom:   68    charge:    1.4637    magn:   -0.0005    constr:    0.0000
     atom:   69    charge:    1.5204    magn:    0.0003    constr:    0.0000
     atom:   70    charge:    1.4712    magn:    0.0000    constr:    0.0000
     atom:   71    charge:    1.4346    magn:    0.0000    constr:    0.0000
     atom:   72    charge:    1.3678    magn:    0.0001    constr:    0.0000
     atom:   73    charge:    1.3579    magn:    0.0003    constr:    0.0000
     atom:   74    charge:    1.3993    magn:   -0.0007    constr:    0.0000
     atom:   75    charge:    1.1185    magn:    0.0355    constr:    0.0000
     atom:   76    charge:    1.4964    magn:    0.0026    constr:    0.0000
     atom:   77    charge:    1.4747    magn:   -0.0000    constr:    0.0000
     atom:   78    charge:    1.4447    magn:    0.0000    constr:    0.0000
     atom:   79    charge:    1.3615    magn:   -0.0000    constr:    0.0000
     atom:   80    charge:    1.3435    magn:   -0.0000    constr:    0.0000
     atom:   81    charge:    1.3579    magn:    0.0003    constr:    0.0000
     atom:   82    charge:    1.4633    magn:    0.0035    constr:    0.0000
     atom:   83    charge:    1.4996    magn:    0.0014    constr:    0.0000
     atom:   84    charge:    1.4985    magn:    0.0006    constr:    0.0000
     atom:   85    charge:    1.4622    magn:    0.0001    constr:    0.0000
     atom:   86    charge:    1.4205    magn:   -0.0000    constr:    0.0000
     atom:   87    charge:    1.3615    magn:   -0.0000    constr:    0.0000
     atom:   88    charge:    1.3678    magn:    0.0001    constr:    0.0000
     atom:   89    charge:    1.4345    magn:    0.0001    constr:    0.0000
     atom:   90    charge:    1.4668    magn:    0.0011    constr:    0.0000
     atom:   91    charge:    1.5036    magn:   -0.0000    constr:    0.0000
     atom:   92    charge:    1.5163    magn:   -0.0000    constr:    0.0000
     atom:   93    charge:    1.4622    magn:    0.0001    constr:    0.0000
     atom:   94    charge:    1.4447    magn:    0.0000    constr:    0.0000
     atom:   95    charge:    1.4346    magn:    0.0000    constr:    0.0000
     atom:   96    charge:    1.4494    magn:    0.0000    constr:    0.0000
     atom:   97    charge:    1.4617    magn:    0.0001    constr:    0.0000
     atom:   98    charge:    1.5140    magn:    0.0002    constr:    0.0000

     total cpu time spent up to now is     2834.3 secs

     End of self-consistent calculation

 ------ SPIN UP ------------


          k = 0.0000 0.0000 0.0000 (  3407 PWs)   bands (ev):

   -35.2760 -35.1583 -35.0218 -35.0093 -34.9893 -34.9278 -34.8339 -34.4266
   -34.2233 -34.2093 -34.2080 -34.1081 -34.0743 -33.9713 -33.8347 -33.8257
   -33.8092 -33.6371 -33.5770 -33.0583 -32.8695 -32.8676 -32.8636 -32.8512
   -32.8479 -32.8438 -32.8429 -32.8247 -32.8035 -32.6070 -32.5902 -32.4746
   -32.4253 -32.4194 -32.4020 -32.2103 -32.1846 -32.0032 -31.9929 -31.9842
   -31.9744 -31.9088 -31.8877 -31.8347 -31.8251 -31.8147 -31.8105 -27.0060
   -23.3191 -19.2798 -17.7501 -17.7412 -17.7244 -17.6994 -17.6910 -17.6802
   -17.6132 -17.5880 -17.5653 -17.5269 -17.4014 -17.0651 -16.9046 -16.9039
   -16.8757 -16.7639 -16.7551 -16.5352 -16.2320 -16.2043 -16.2025 -16.1988
   -16.1893 -16.1829 -16.1824 -16.1462 -16.0777 -15.9035 -15.6901 -15.1039
   -14.6159 -14.6116 -14.5998 -14.5693 -14.4184 -14.2706 -14.2538 -14.1817
   -14.1496 -14.0641 -13.9800 -13.1440 -13.0102 -12.9008 -12.8867 -12.8785
   -12.8701 -12.8610 -12.8229 -12.7781 -12.7496 -12.6635 -12.6120 -12.5551
   -12.3493 -12.2734 -12.2395 -12.2182 -12.2060 -12.2000 -12.1911 -12.1609
   -12.1117 -12.0602 -12.0352 -12.0233 -12.0051 -11.9867 -11.9638 -11.9540
   -11.8315 -11.6861 -10.9643 -10.9640 -10.9520 -10.9450 -10.8409 -10.7580
   -10.6851 -10.6758 -10.6660 -10.6471 -10.5681 -10.5398 -10.3978 -10.3485
   -10.3343 -10.3146 -10.2729 -10.2566 -10.2343 -10.2321 -10.1664 -10.0882
   -10.0720 -10.0493 -10.0005  -9.9916  -9.9915  -9.9680  -9.8922  -9.8788
    -9.8526  -9.8293  -9.8169  -9.6092  -9.4906  -9.1311  -8.7507  -8.7288
    -8.7211  -8.5797  -8.1381  -8.0009  -7.9059  -7.8284  -7.8281  -7.8265
    -7.8190  -7.8135  -7.8054  -7.7968  -7.7811  -7.7536  -7.5888  -7.4757
    -7.0114  -6.9858  -6.8814  -6.7926  -6.7889  -6.7729  -6.6793  -6.5544
    -5.7776  -5.7460  -5.7298  -5.7273  -5.6529  -5.6253  -5.4927  -5.4532
    -5.4467  -5.4451  -5.2275  -4.3760  -1.8380  -1.0566  -1.0472  -1.0383
    -1.0285  -1.0188  -0.9609  -0.8013  -0.4060  -0.1696  -0.1693  -0.1641
    -0.1597  -0.1534  -0.1460   0.2626   0.2630   0.2652   0.2720   0.2745
     0.2869   0.3665   0.3685   0.3700   0.3865   0.3966   0.3985   0.5235
     0.6496   0.6972   0.7068   0.7188   0.7264   0.7555   0.7756   0.8825
     0.8911   0.9073   0.9189   0.9372   0.9470   1.0716   1.1159   1.1299
     1.1307   1.1330   1.1615   1.2543   1.2817

 ------ SPIN DOWN ----------


          k = 0.0000 0.0000 0.0000 (  3407 PWs)   bands (ev):

   -35.2726 -35.1566 -35.0193 -35.0072 -34.9883 -34.9184 -34.8288 -34.4237
   -34.2191 -34.2047 -34.2006 -34.1037 -34.0720 -33.9699 -33.8276 -33.8188
   -33.8054 -33.6255 -33.5719 -33.0502 -32.8680 -32.8627 -32.8598 -32.8492
   -32.8428 -32.8390 -32.8350 -32.8137 -32.7982 -32.6032 -32.5857 -32.4684
   -32.4210 -32.4153 -32.3978 -32.2018 -32.1793 -31.9968 -31.9886 -31.9780
   -31.9706 -31.9049 -31.8805 -31.8332 -31.8224 -31.8107 -31.8066 -26.7926
   -22.8151 -19.1385 -17.7472 -17.7362 -17.7221 -17.6981 -17.6875 -17.6773
   -17.6112 -17.5849 -17.5616 -17.5118 -17.3911 -17.0569 -16.9031 -16.9021
   -16.8726 -16.7557 -16.7430 -16.5198 -16.2273 -16.2021 -16.2003 -16.1965
   -16.1872 -16.1810 -16.1764 -16.1386 -16.0609 -15.8810 -15.6565 -15.0938
   -14.6124 -14.6097 -14.5965 -14.5632 -14.4088 -14.2609 -14.2494 -14.1737
   -14.1407 -14.0536 -13.9641 -13.1382 -13.0021 -12.8992 -12.8819 -12.8731
   -12.8670 -12.8575 -12.8186 -12.7701 -12.7383 -12.6554 -12.6005 -12.5381
   -12.3473 -12.2651 -12.2362 -12.2163 -12.2040 -12.1981 -12.1879 -12.1551
   -12.1011 -12.0431 -12.0278 -12.0159 -12.0001 -11.9632 -11.9461 -11.9138
   -11.7308 -11.6662 -10.9635 -10.9574 -10.9503 -10.9394 -10.8327 -10.7383
   -10.6705 -10.6548 -10.6518 -10.6342 -10.5294 -10.4801 -10.3946 -10.3466
   -10.3320 -10.3108 -10.2706 -10.2547 -10.2305 -10.2297 -10.1559 -10.0777
   -10.0630 -10.0445  -9.9937  -9.9699  -9.9696  -9.9527  -9.8894  -9.8583
    -9.8503  -9.7325  -9.6997  -9.5672  -9.4641  -9.0951  -8.7478  -8.7285
    -8.7174  -8.5416  -8.0939  -7.9800  -7.8411  -7.8238  -7.8141  -7.8140
    -7.8043  -7.8026  -7.7898  -7.7699  -7.7364  -7.7244  -7.4681  -7.3747
    -6.9501  -6.9082  -6.8588  -6.7761  -6.7686  -6.7545  -6.5620  -6.4447
    -5.7508  -5.7258  -5.7110  -5.7104  -5.6110  -5.6071  -5.4870  -5.4428
    -5.4303  -5.4295  -4.9339  -2.5151  -1.8322  -1.0556  -1.0453  -1.0361
    -1.0181  -1.0163  -0.9392  -0.7996  -0.4048  -0.1669  -0.1662  -0.1606
    -0.1588  -0.1530  -0.1447   0.2632   0.2634   0.2660   0.2729   0.2750
     0.2878   0.3692   0.3728   0.3730   0.3903   0.4094   0.4102   0.6163
     0.6527   0.7024   0.7295   0.7347   0.7423   0.7877   0.7990   0.8883
     0.8927   0.9116   0.9221   0.9537   0.9589   1.0927   1.1159   1.1296
     1.1319   1.1404   1.1993   1.2643   1.2965

     highest occupied, lowest unoccupied level (ev):    -4.3760   -2.5151

!    total energy              =   -1540.66170550 Ry
     Harris-Foulkes estimate   =   -1540.66170575 Ry
     estimated scf accuracy    <       0.00000001 Ry

     total magnetization       =     1.00 Bohr mag/cell
     absolute magnetization    =     1.24 Bohr mag/cell

     convergence has been achieved in   3 iterations

     Using ACE for calculation of exact exchange

!!   total energy              =   -1540.66170597 Ry
     Harris-Foulkes estimate   =   -1540.66170622 Ry
     est. exchange err (dexx)  =       0.00000047 Ry
     - averaged Fock potential =     169.87796927 Ry
     + Fock energy (ACE)       =     -84.93938120 Ry

     EXX self-consistency reached

     Writing output data file C2Cn.save/
 
     init_run     :      0.57s CPU      1.28s WALL (       1 calls)
     electrons    :     61.95s CPU     65.94s WALL (       6 calls)

     Called by init_run:
     wfcinit      :      0.24s CPU      0.27s WALL (       1 calls)
     potinit      :      0.23s CPU      0.25s WALL (       1 calls)
     hinit0       :      0.07s CPU      0.07s WALL (       1 calls)

     Called by electrons:
     c_bands      :     43.21s CPU     46.29s WALL (      30 calls)
     sum_band     :      1.43s CPU      1.55s WALL (      30 calls)
     v_of_rho     :      0.36s CPU      0.39s WALL (      32 calls)
     newd         :      0.11s CPU      0.78s WALL (      31 calls)
     PAW_pot      :      9.27s CPU      9.34s WALL (      32 calls)
     mix_rho      :      0.08s CPU      0.10s WALL (      30 calls)

     Called by c_bands:
     init_us_2    :      0.36s CPU      0.40s WALL (    3074 calls)
     rcgdiagg     :     39.78s CPU     42.68s WALL (      66 calls)
     wfcrot       :      3.60s CPU      3.77s WALL (      56 calls)

     Called by sum_band:
     sum_band:bec :      0.03s CPU      0.03s WALL (      60 calls)
     addusdens    :      0.06s CPU      0.07s WALL (      30 calls)

     Called by *cgdiagg:
     h_psi        :     24.46s CPU     26.21s WALL (   58051 calls)
     s_psi        :      3.70s CPU      3.99s WALL (  116046 calls)
     rdiaghg      :      0.94s CPU      0.99s WALL (      56 calls)

     Called by h_psi:
     h_psi:pot    :     21.00s CPU     22.50s WALL (   58051 calls)
     h_psi:calbec :      6.15s CPU      6.58s WALL (   58051 calls)
     vloc_psi     :     12.47s CPU     13.37s WALL (   58051 calls)
     add_vuspsi   :      1.94s CPU      2.09s WALL (   58051 calls)
     hs_1psi      :     25.08s CPU     26.92s WALL (   57995 calls)
     s_1psi       :      7.26s CPU      7.78s WALL (   57995 calls)

     General routines
     calbec       :     14.09s CPU     15.09s WALL (  157137 calls)
     fft          :      0.23s CPU      0.24s WALL (     525 calls)
     ffts         :      0.05s CPU      0.05s WALL (      60 calls)
     fftw         :     12.56s CPU     13.48s WALL (  137438 calls)
     fftc         :    271.17s CPU    273.49s WALL (  576240 calls)
     fftcw        :      0.66s CPU      0.70s WALL (    5892 calls)
 
     Parallel routines
     fft_scatt_xy :      4.10s CPU      4.14s WALL (  720155 calls)
     fft_scatt_yz :    242.07s CPU    244.55s WALL (  720155 calls)

     EXX routines
     exx_grid     :      0.00s CPU      0.00s WALL (       1 calls)
     exxinit      :      1.89s CPU      1.93s WALL (       6 calls)
     vexx         :   3290.09s CPU   3308.60s WALL (      12 calls)
     matcalc      :      2.76s CPU      2.96s WALL (   41019 calls)
     aceupdate    :      0.02s CPU      0.03s WALL (      12 calls)
     vexxace      :      3.30s CPU      3.53s WALL (   40985 calls)
     aceinit      :   3290.18s CPU   3308.72s WALL (      12 calls)

     EXX+US  routines
     becxx        :      0.01s CPU      0.01s WALL (       6 calls)
     addusxx      :   1096.98s CPU   1103.60s WALL (  576240 calls)
     newdxx       :   1048.70s CPU   1053.81s WALL (  576240 calls)
     qvan_init    :      0.01s CPU      0.02s WALL (      12 calls)
     nlxx_pot     :      0.44s CPU      0.48s WALL (    2940 calls)

     EXX+PAW routines
     PAW_newdxx   :    853.68s CPU    858.65s WALL (  576240 calls)
 
     PWSCF        :  56m 1.48s CPU  56m26.39s WALL

 
   This run was terminated on:   8:28:29  22Sep2021            

=------------------------------------------------------------------------------=
   JOB DONE.
=------------------------------------------------------------------------------=
