
     Program PWSCF v.6.4.1 starts on  2Jul2021 at 10:32:46 

     This program is part of the open-source Quantum ESPRESSO suite
     for quantum simulation of materials; please cite
         "P. Giannozzi et al., J. Phys.:Condens. Matter 21 395502 (2009);
         "P. Giannozzi et al., J. Phys.:Condens. Matter 29 465901 (2017);
          URL http://www.quantum-espresso.org", 
     in publications or presentations arising from this work. More details at
     http://www.quantum-espresso.org/quote

     Parallel version (MPI), running on    64 processors

     MPI processes distributed on     2 nodes
     R & G space division:  proc/nbgrp/npool/nimage =      64
     Waiting for input...
     Reading input from standard input

     Current dimensions of program PWSCF are:
     Max number of different atomic species (ntypx) = 10
     Max number of k-points (npk) =  40000
     Max angular momentum in pseudopotentials (lmaxx) =  3
               file N.pbe-n-kjpaw_psl.1.0.0.UPF: wavefunction(s)  2S renormalized
               file C.pbe-n-kjpaw_psl.1.0.0.UPF: wavefunction(s)  2S 2P renormalized
               file C.pbe-n-kjpaw_psl.1.0.0.UPF: wavefunction(s)  2S 2P renormalized
               file C.pbe-n-kjpaw_psl.1.0.0.UPF: wavefunction(s)  2S 2P renormalized

     --------------------------------------------
     Parameters for DFT-D3 Dispersion Correction:
     --------------------------------------------
       Reference C6 values for interpolation: 

         atom   Coordination number   C6
         B          0.000           214.36
         B          0.971           150.74
         B          1.944           106.23
         B          2.913            62.89
         B          4.586            56.06
         C1         0.000            98.23
         C1         0.987            86.49
         C1         1.998            58.72
         C1         2.999            51.56
         C1         3.984            36.41
         C2         0.000            98.23
         C2         0.987            86.49
         C2         1.998            58.72
         C2         2.999            51.56
         C2         3.984            36.41
         C3         0.000            98.23
         C3         0.987            86.49
         C3         1.998            58.72
         C3         2.999            51.56
         C3         3.984            36.41
         N          0.000            50.54
         N          0.994            44.25
         N          2.014            39.35
         N          2.990            31.16

       Values used:

         atom   Coordination number  R0_AB[au]  C6      C8
         B          3.326            3.039     62.90   2506.22
         B          3.317            3.039     62.90   2506.43
         B          3.318            3.039     62.90   2506.42
         B          3.323            3.039     62.90   2506.29
         B          3.325            3.039     62.90   2506.26
         B          3.323            3.039     62.90   2506.30
         B          3.326            3.039     62.90   2506.24
         B          3.323            3.039     62.90   2506.29
         B          3.322            3.039     62.90   2506.32
         B          3.307            3.039     62.91   2506.67
         B          3.318            3.039     62.90   2506.42
         B          3.324            3.039     62.90   2506.27
         B          3.322            3.039     62.90   2506.31
         B          3.323            3.039     62.90   2506.30
         B          3.323            3.039     62.90   2506.30
         B          3.324            3.039     62.90   2506.27
         B          3.294            3.039     62.92   2506.95
         B          3.280            3.039     62.92   2507.27
         B          3.319            3.039     62.90   2506.40
         B          3.324            3.039     62.90   2506.27
         B          3.325            3.039     62.90   2506.26
         B          3.322            3.039     62.90   2506.33
         B          3.317            3.039     62.90   2506.43
         B          3.306            3.039     62.91   2506.69
         C2         3.239            2.750     49.57   1433.53
         B          3.280            3.039     62.92   2507.27
         B          3.318            3.039     62.90   2506.42
         B          3.323            3.039     62.90   2506.29
         B          3.320            3.039     62.90   2506.38
         B          3.317            3.039     62.90   2506.45
         B          3.308            3.039     62.91   2506.65
         B          3.306            3.039     62.91   2506.69
         B          3.294            3.039     62.92   2506.95
         B          3.307            3.039     62.91   2506.67
         B          3.318            3.039     62.90   2506.42
         B          3.316            3.039     62.90   2506.46
         B          3.317            3.039     62.90   2506.45
         B          3.317            3.039     62.90   2506.45
         B          3.317            3.039     62.90   2506.43
         B          3.324            3.039     62.90   2506.27
         B          3.322            3.039     62.90   2506.32
         B          3.317            3.039     62.90   2506.43
         B          3.319            3.039     62.90   2506.39
         B          3.316            3.039     62.90   2506.46
         B          3.320            3.039     62.90   2506.38
         B          3.322            3.039     62.90   2506.33
         B          3.323            3.039     62.90   2506.30
         B          3.323            3.039     62.90   2506.29
         B          3.326            3.039     62.90   2506.22
         N          3.129            2.478     31.22    688.74
         N          3.129            2.478     31.22    688.75
         N          3.126            2.478     31.22    688.78
         N          3.128            2.478     31.22    688.76
         N          3.129            2.478     31.22    688.74
         N          3.128            2.478     31.22    688.75
         N          3.128            2.478     31.22    688.75
         N          3.128            2.478     31.22    688.75
         N          3.129            2.478     31.22    688.75
         N          3.125            2.478     31.22    688.78
         N          3.123            2.478     31.22    688.80
         N          3.129            2.478     31.22    688.74
         N          3.128            2.478     31.22    688.75
         N          3.128            2.478     31.22    688.75
         N          3.129            2.478     31.22    688.75
         N          3.129            2.478     31.22    688.75
         N          3.130            2.478     31.22    688.73
         C1         3.176            2.750     50.30   1454.80
         N          3.126            2.478     31.22    688.77
         N          3.129            2.478     31.22    688.74
         N          3.129            2.478     31.22    688.74
         N          3.128            2.478     31.22    688.75
         N          3.127            2.478     31.22    688.77
         N          3.124            2.478     31.22    688.80
         N          3.144            2.478     31.21    688.61
         C3         3.176            2.750     50.30   1454.80
         N          3.123            2.478     31.22    688.80
         N          3.128            2.478     31.22    688.76
         N          3.127            2.478     31.22    688.77
         N          3.126            2.478     31.22    688.77
         N          3.125            2.478     31.22    688.78
         N          3.124            2.478     31.22    688.80
         N          3.130            2.478     31.22    688.73
         N          3.125            2.478     31.22    688.78
         N          3.126            2.478     31.22    688.78
         N          3.127            2.478     31.22    688.77
         N          3.126            2.478     31.22    688.77
         N          3.126            2.478     31.22    688.77
         N          3.127            2.478     31.22    688.77
         N          3.129            2.478     31.22    688.75
         N          3.129            2.478     31.22    688.75
         N          3.129            2.478     31.22    688.75
         N          3.129            2.478     31.22    688.74
         N          3.127            2.478     31.22    688.77
         N          3.127            2.478     31.22    688.77
         N          3.128            2.478     31.22    688.75
         N          3.129            2.478     31.22    688.75
         N          3.128            2.478     31.22    688.75
         N          3.129            2.478     31.22    688.74

         Molecular C6 ( Ry / a.u.^6 ) =    437748.99


     gamma-point specific algorithms are used

     Subspace diagonalization in iterative solution of the eigenvalue problem:
     one sub-group per band group will be used
     scalapack distributed-memory algorithm (size of sub-group:  5*  5 procs)

     Message from routine setup:
     DEPRECATED: symmetry with ibrav=0, use correct ibrav instead
 
     Parallelization info
     --------------------
     sticks:   dense  smooth     PW     G-vecs:    dense   smooth      PW
     Min         189     189     46                19338    19338    2406
     Max         192     192     48                19350    19350    2428
     Sum       12173   12173   3053              1238153  1238153  154933
 


     bravais-lattice index     =            0
     lattice parameter (alat)  =      33.2346  a.u.
     unit-cell volume          =   36233.2031 (a.u.)^3
     number of atoms/cell      =           98
     number of atomic types    =            5
     number of electrons       =       391.00
     number of Kohn-Sham states=          245
     kinetic-energy cutoff     =      40.0000  Ry
     charge density cutoff     =     160.0000  Ry
     convergence threshold     =      1.0E-12
     mixing beta               =       0.7000
     number of iterations used =            8  plain     mixing
     Exchange-correlation      = SLA PW PBX PBC ( 1  4  3  4 0 0)
     Using LIBXC version       =    4   3   4
     nstep                     =           50


     celldm(1)=  33.234611  celldm(2)=   0.000000  celldm(3)=   0.000000
     celldm(4)=   0.000000  celldm(5)=   0.000000  celldm(6)=   0.000000

     crystal axes: (cart. coord. in units of alat)
               a(1) = (   1.001013   0.000172   0.000000 )  
               a(2) = (  -0.500357   0.866989   0.000000 )  
               a(3) = (   0.000000   0.000000   1.137204 )  

     reciprocal axes: (cart. coord. in units 2 pi/alat)
               b(1) = (  0.998888  0.576479  0.000000 )  
               b(2) = ( -0.000199  1.153302  0.000000 )  
               b(3) = (  0.000000  0.000000  0.879350 )  


     PseudoPot. # 1 for B  read from file:
     ./pseudo/B.pbe-n-kjpaw_psl.1.0.0.UPF
     MD5 check sum: 8c825a5969375aca5c2c6ad5945b3059
     Pseudo is Projector augmented-wave + core cor, Zval =  3.0
     Generated using "atomic" code by A. Dal Corso v.6.3
     Shape of augmentation charge: PSQ
     Using radial grid of 1059 points,  4 beta functions with: 
                l(1) =   0
                l(2) =   0
                l(3) =   1
                l(4) =   1
     Q(r) pseudized with 0 coefficients 


     PseudoPot. # 2 for N  read from file:
     ./pseudo/N.pbe-n-kjpaw_psl.1.0.0.UPF
     MD5 check sum: 14c48229446f9f2d411169a3abcbc3fa
     Pseudo is Projector augmented-wave + core cor, Zval =  5.0
     Generated using "atomic" code by A. Dal Corso v.6.3
     Shape of augmentation charge: PSQ
     Using radial grid of 1085 points,  4 beta functions with: 
                l(1) =   0
                l(2) =   0
                l(3) =   1
                l(4) =   1
     Q(r) pseudized with 0 coefficients 


     PseudoPot. # 3 for C  read from file:
     ./pseudo/C.pbe-n-kjpaw_psl.1.0.0.UPF
     MD5 check sum: 5f16ad9a65e90284d1d834d4ab3b0f7d
     Pseudo is Projector augmented-wave + core cor, Zval =  4.0
     Generated using "atomic" code by A. Dal Corso v.6.3
     Shape of augmentation charge: PSQ
     Using radial grid of 1073 points,  4 beta functions with: 
                l(1) =   0
                l(2) =   0
                l(3) =   1
                l(4) =   1
     Q(r) pseudized with 0 coefficients 


     PseudoPot. # 4 for C  read from file:
     ./pseudo/C.pbe-n-kjpaw_psl.1.0.0.UPF
     MD5 check sum: 5f16ad9a65e90284d1d834d4ab3b0f7d
     Pseudo is Projector augmented-wave + core cor, Zval =  4.0
     Generated using "atomic" code by A. Dal Corso v.6.3
     Shape of augmentation charge: PSQ
     Using radial grid of 1073 points,  4 beta functions with: 
                l(1) =   0
                l(2) =   0
                l(3) =   1
                l(4) =   1
     Q(r) pseudized with 0 coefficients 


     PseudoPot. # 5 for C  read from file:
     ./pseudo/C.pbe-n-kjpaw_psl.1.0.0.UPF
     MD5 check sum: 5f16ad9a65e90284d1d834d4ab3b0f7d
     Pseudo is Projector augmented-wave + core cor, Zval =  4.0
     Generated using "atomic" code by A. Dal Corso v.6.3
     Shape of augmentation charge: PSQ
     Using radial grid of 1073 points,  4 beta functions with: 
                l(1) =   0
                l(2) =   0
                l(3) =   1
                l(4) =   1
     Q(r) pseudized with 0 coefficients 


     atomic species   valence    mass     pseudopotential
        B              3.00    10.00000     B ( 1.00)
        N              5.00    14.00000     N ( 1.00)
        C1             4.00    12.00000     C ( 1.00)
        C2             4.00    12.00000     C ( 1.00)
        C3             4.00    12.00000     C ( 1.00)

     Starting magnetic structure 
     atomic species   magnetization
        B            0.000
        N            0.000
        C1           1.000
        C2           0.000
        C3           0.000

      2 Sym. Ops. (no inversion) found



   Cartesian axes

     site n.     atom                  positions (alat units)
         1           B   tau(   1) = (  -0.0000572   0.0821040   0.5686018  )
         2           B   tau(   2) = (  -0.0715921   0.2061127   0.5686018  )
         3           B   tau(   3) = (  -0.1432597   0.3302114   0.5686018  )
         4           B   tau(   4) = (  -0.2148366   0.4540934   0.5686018  )
         5           B   tau(   5) = (  -0.2858848   0.5779694   0.5686018  )
         6           B   tau(   6) = (  -0.3571588   0.7019472   0.5686018  )
         7           B   tau(   7) = (  -0.4287438   0.8256431   0.5686018  )
         8           B   tau(   8) = (   0.1429038   0.0818276   0.5686018  )
         9           B   tau(   9) = (   0.0710545   0.2050910   0.5686018  )
        10           B   tau(  10) = (  -0.0002579   0.3300887   0.5686018  )
        11           B   tau(  11) = (  -0.0723456   0.4540192   0.5686018  )
        12           B   tau(  12) = (  -0.1437977   0.5781172   0.5686018  )
        13           B   tau(  13) = (  -0.2145746   0.7019924   0.5686018  )
        14           B   tau(  14) = (  -0.2858276   0.8254966   0.5686018  )
        15           B   tau(  15) = (   0.2863399   0.0818633   0.5686018  )
        16           B   tau(  16) = (   0.2149169   0.2047767   0.5686018  )
        17           B   tau(  17) = (   0.1430561   0.3271984   0.5686018  )
        18           B   tau(  18) = (   0.0699963   0.4551773   0.5686018  )
        19           B   tau(  19) = (  -0.0020397   0.5792854   0.5686018  )
        20           B   tau(  20) = (  -0.0719070   0.7026355   0.5686018  )
        21           B   tau(  21) = (  -0.1428226   0.8257603   0.5686018  )
        22           B   tau(  22) = (   0.4291294   0.0825782   0.5686018  )
        23           B   tau(  23) = (   0.3575983   0.2061921   0.5686018  )
        24           B   tau(  24) = (   0.2854948   0.3294347   0.5686018  )
        25           C2  tau(  25) = (   0.2163766   0.4531826   0.5686018  )
        26           B   tau(  26) = (   0.1414590   0.5789544   0.5686018  )
        27           B   tau(  27) = (   0.0712910   0.7028051   0.5686018  )
        28           B   tau(  28) = (  -0.0000187   0.8261689   0.5686018  )
        29           B   tau(  29) = (   0.5719341   0.0827333   0.5686018  )
        30           B   tau(  30) = (   0.5005332   0.2064727   0.5686018  )
        31           B   tau(  31) = (   0.4290690   0.3303846   0.5686018  )
        32           B   tau(  32) = (   0.3581046   0.4551985   0.5686018  )
        33           B   tau(  33) = (   0.2888218   0.5796722   0.5686018  )
        34           B   tau(  34) = (   0.2146618   0.7023405   0.5686018  )
        35           B   tau(  35) = (   0.1430547   0.8261224   0.5686018  )
        36           B   tau(  36) = (   0.7149462   0.0827742   0.5686018  )
        37           B   tau(  37) = (   0.6434204   0.2066288   0.5686018  )
        38           B   tau(  38) = (   0.5721120   0.3304508   0.5686018  )
        39           B   tau(  39) = (   0.5008875   0.4543763   0.5686018  )
        40           B   tau(  40) = (   0.4307726   0.5786498   0.5686018  )
        41           B   tau(  41) = (   0.3585692   0.7030811   0.5686018  )
        42           B   tau(  42) = (   0.2863611   0.8261058   0.5686018  )
        43           B   tau(  43) = (   0.8581180   0.0826730   0.5686018  )
        44           B   tau(  44) = (   0.7864445   0.2066129   0.5686018  )
        45           B   tau(  45) = (   0.7149739   0.3304854   0.5686018  )
        46           B   tau(  46) = (   0.6437059   0.4542355   0.5686018  )
        47           B   tau(  47) = (   0.5729302   0.5782523   0.5686018  )
        48           B   tau(  48) = (   0.5012431   0.7024895   0.5686018  )
        49           B   tau(  49) = (   0.4295232   0.8261592   0.5686018  )
        50           N   tau(  50) = (   0.0714375   0.0409435   0.5686018  )
        51           N   tau(  51) = (  -0.0003700   0.1643966   0.5686018  )
        52           N   tau(  52) = (  -0.0717355   0.2888105   0.5686018  )
        53           N   tau(  53) = (  -0.1435526   0.4127384   0.5686018  )
        54           N   tau(  54) = (  -0.2148529   0.5366103   0.5686018  )
        55           N   tau(  55) = (  -0.2858379   0.6605658   0.5686018  )
        56           N   tau(  56) = (  -0.3572668   0.7843758   0.5686018  )
        57           N   tau(  57) = (   0.2146215   0.0408641   0.5686018  )
        58           N   tau(  58) = (   0.1428588   0.1641068   0.5686018  )
        59           N   tau(  59) = (   0.0708950   0.2874185   0.5686018  )
        60           N   tau(  60) = (  -0.0010158   0.4128952   0.5686018  )
        61           N   tau(  61) = (  -0.0727896   0.5369119   0.5686018  )
        62           N   tau(  62) = (  -0.1432087   0.6607893   0.5686018  )
        63           N   tau(  63) = (  -0.2143298   0.7844215   0.5686018  )
        64           N   tau(  64) = (   0.3577982   0.0411129   0.5686018  )
        65           N   tau(  65) = (   0.2865935   0.1641774   0.5686018  )
        66           N   tau(  66) = (   0.2150824   0.2864809   0.5686018  )
        67           C1  tau(  67) = (   0.1450379   0.4127529   0.5686018  )
        68           N   tau(  68) = (   0.0685551   0.5385274   0.5686018  )
        69           N   tau(  69) = (  -0.0007182   0.6617433   0.5686018  )
        70           N   tau(  70) = (  -0.0714886   0.7849245   0.5686018  )
        71           N   tau(  71) = (   0.5005197   0.0415566   0.5686018  )
        72           N   tau(  72) = (   0.4291107   0.1652155   0.5686018  )
        73           N   tau(  73) = (   0.3573533   0.2891912   0.5686018  )
        74           N   tau(  74) = (   0.2853732   0.4133474   0.5686018  )
        75           C3  tau(  75) = (   0.2157204   0.5351786   0.5686018  )
        76           N   tau(  76) = (   0.1425704   0.6615937   0.5686018  )
        77           N   tau(  77) = (   0.0714377   0.7851126   0.5686018  )
        78           N   tau(  78) = (   0.6434280   0.0416063   0.5686018  )
        79           N   tau(  79) = (   0.5719529   0.1653192   0.5686018  )
        80           N   tau(  80) = (   0.5004151   0.2891929   0.5686018  )
        81           N   tau(  81) = (   0.4288857   0.4130889   0.5686018  )
        82           N   tau(  82) = (   0.3600974   0.5376543   0.5686018  )
        83           N   tau(  83) = (   0.2871917   0.6620555   0.5686018  )
        84           N   tau(  84) = (   0.2146710   0.7848811   0.5686018  )
        85           N   tau(  85) = (   0.7865165   0.0415735   0.5686018  )
        86           N   tau(  86) = (   0.7149189   0.1653491   0.5686018  )
        87           N   tau(  87) = (   0.6434618   0.2891762   0.5686018  )
        88           N   tau(  88) = (   0.5721304   0.4129331   0.5686018  )
        89           N   tau(  89) = (   0.5017709   0.5368756   0.5686018  )
        90           N   tau(  90) = (   0.4299647   0.6613889   0.5686018  )
        91           N   tau(  91) = (   0.3580993   0.7852837   0.5686018  )
        92           N   tau(  92) = (   0.9295407   0.0414371   0.5686018  )
        93           N   tau(  93) = (   0.8579105   0.1652316   0.5686018  )
        94           N   tau(  94) = (   0.7863378   0.2891334   0.5686018  )
        95           N   tau(  95) = (   0.7149268   0.4129205   0.5686018  )
        96           N   tau(  96) = (   0.6439503   0.5367428   0.5686018  )
        97           N   tau(  97) = (   0.5725774   0.6608619   0.5686018  )
        98           N   tau(  98) = (   0.5009166   0.7848231   0.5686018  )

     number of k points=     1
                       cart. coord. in units 2pi/alat
        k(    1) = (   0.0000000   0.0000000   0.0000000), wk =   1.0000000

     Dense  grid:   619077 G-vectors     FFT dimensions: ( 135, 135, 160)

     Occupations read from input 

      Spin-up

        1.0000   1.0000   1.0000   1.0000   1.0000   1.0000   1.0000   1.0000
        1.0000   1.0000   1.0000   1.0000   1.0000   1.0000   1.0000   1.0000
        1.0000   1.0000   1.0000   1.0000   1.0000   1.0000   1.0000   1.0000
        1.0000   1.0000   1.0000   1.0000   1.0000   1.0000   1.0000   1.0000
        1.0000   1.0000   1.0000   1.0000   1.0000   1.0000   1.0000   1.0000
        1.0000   1.0000   1.0000   1.0000   1.0000   1.0000   1.0000   1.0000
        1.0000   1.0000   1.0000   1.0000   1.0000   1.0000   1.0000   1.0000
        1.0000   1.0000   1.0000   1.0000   1.0000   1.0000   1.0000   1.0000
        1.0000   1.0000   1.0000   1.0000   1.0000   1.0000   1.0000   1.0000
        1.0000   1.0000   1.0000   1.0000   1.0000   1.0000   1.0000   1.0000
        1.0000   1.0000   1.0000   1.0000   1.0000   1.0000   1.0000   1.0000
        1.0000   1.0000   1.0000   1.0000   1.0000   1.0000   1.0000   1.0000
        1.0000   1.0000   1.0000   1.0000   1.0000   1.0000   1.0000   1.0000
        1.0000   1.0000   1.0000   1.0000   1.0000   1.0000   1.0000   1.0000
        1.0000   1.0000   1.0000   1.0000   1.0000   1.0000   1.0000   1.0000
        1.0000   1.0000   1.0000   1.0000   1.0000   1.0000   1.0000   1.0000
        1.0000   1.0000   1.0000   1.0000   1.0000   1.0000   1.0000   1.0000
        1.0000   1.0000   1.0000   1.0000   1.0000   1.0000   1.0000   1.0000
        1.0000   1.0000   1.0000   1.0000   1.0000   1.0000   1.0000   1.0000
        1.0000   1.0000   1.0000   1.0000   1.0000   1.0000   1.0000   1.0000
        1.0000   1.0000   1.0000   1.0000   1.0000   1.0000   1.0000   1.0000
        1.0000   1.0000   1.0000   1.0000   1.0000   1.0000   1.0000   1.0000
        1.0000   1.0000   1.0000   1.0000   1.0000   1.0000   1.0000   1.0000
        1.0000   1.0000   1.0000   1.0000   1.0000   1.0000   1.0000   1.0000
        1.0000   1.0000   1.0000   0.0000   1.0000   0.0000   0.0000   0.0000
        0.0000   0.0000   0.0000   0.0000   0.0000   0.0000   0.0000   0.0000
        0.0000   0.0000   0.0000   0.0000   0.0000   0.0000   0.0000   0.0000
        0.0000   0.0000   0.0000   0.0000   0.0000   0.0000   0.0000   0.0000
        0.0000   0.0000   0.0000   0.0000   0.0000   0.0000   0.0000   0.0000
        0.0000   0.0000   0.0000   0.0000   0.0000   0.0000   0.0000   0.0000
        0.0000   0.0000   0.0000   0.0000   0.0000

      Spin-down

        1.0000   1.0000   1.0000   1.0000   1.0000   1.0000   1.0000   1.0000
        1.0000   1.0000   1.0000   1.0000   1.0000   1.0000   1.0000   1.0000
        1.0000   1.0000   1.0000   1.0000   1.0000   1.0000   1.0000   1.0000
        1.0000   1.0000   1.0000   1.0000   1.0000   1.0000   1.0000   1.0000
        1.0000   1.0000   1.0000   1.0000   1.0000   1.0000   1.0000   1.0000
        1.0000   1.0000   1.0000   1.0000   1.0000   1.0000   1.0000   1.0000
        1.0000   1.0000   1.0000   1.0000   1.0000   1.0000   1.0000   1.0000
        1.0000   1.0000   1.0000   1.0000   1.0000   1.0000   1.0000   1.0000
        1.0000   1.0000   1.0000   1.0000   1.0000   1.0000   1.0000   1.0000
        1.0000   1.0000   1.0000   1.0000   1.0000   1.0000   1.0000   1.0000
        1.0000   1.0000   1.0000   1.0000   1.0000   1.0000   1.0000   1.0000
        1.0000   1.0000   1.0000   1.0000   1.0000   1.0000   1.0000   1.0000
        1.0000   1.0000   1.0000   1.0000   1.0000   1.0000   1.0000   1.0000
        1.0000   1.0000   1.0000   1.0000   1.0000   1.0000   1.0000   1.0000
        1.0000   1.0000   1.0000   1.0000   1.0000   1.0000   1.0000   1.0000
        1.0000   1.0000   1.0000   1.0000   1.0000   1.0000   1.0000   1.0000
        1.0000   1.0000   1.0000   1.0000   1.0000   1.0000   1.0000   1.0000
        1.0000   1.0000   1.0000   1.0000   1.0000   1.0000   1.0000   1.0000
        1.0000   1.0000   1.0000   1.0000   1.0000   1.0000   1.0000   1.0000
        1.0000   1.0000   1.0000   1.0000   1.0000   1.0000   1.0000   1.0000
        1.0000   1.0000   1.0000   1.0000   1.0000   1.0000   1.0000   1.0000
        1.0000   1.0000   1.0000   1.0000   1.0000   1.0000   1.0000   1.0000
        1.0000   1.0000   1.0000   1.0000   1.0000   1.0000   1.0000   1.0000
        1.0000   1.0000   1.0000   1.0000   1.0000   1.0000   1.0000   1.0000
        1.0000   1.0000   0.0000   1.0000   0.0000   0.0000   0.0000   0.0000
        0.0000   0.0000   0.0000   0.0000   0.0000   0.0000   0.0000   0.0000
        0.0000   0.0000   0.0000   0.0000   0.0000   0.0000   0.0000   0.0000
        0.0000   0.0000   0.0000   0.0000   0.0000   0.0000   0.0000   0.0000
        0.0000   0.0000   0.0000   0.0000   0.0000   0.0000   0.0000   0.0000
        0.0000   0.0000   0.0000   0.0000   0.0000   0.0000   0.0000   0.0000
        0.0000   0.0000   0.0000   0.0000   0.0000

     Estimated max dynamical RAM per process >     122.43 MB

     Estimated total dynamical RAM >       7.65 GB
     Generating pointlists ...
     new r_m :   0.0336 (alat units)  1.1175 (a.u.) for type    1
     new r_m :   0.0329 (alat units)  1.0922 (a.u.) for type    2
     new r_m :   0.0338 (alat units)  1.1241 (a.u.) for type    3
     new r_m :   0.0329 (alat units)  1.0922 (a.u.) for type    4
     new r_m :   0.0338 (alat units)  1.1241 (a.u.) for type    5

     Check: negative core charge=   -0.000006

     Initial potential from superposition of free atoms

     starting charge  390.98597, renormalised to  391.00000

     negative rho (up, down):  5.510E-02 5.817E-02
     Starting wfcs are  392 randomized atomic wfcs
     Checking if some PAW data can be deallocated... 

     total cpu time spent up to now is        7.6 secs

     Self-consistent Calculation

     iteration #  1     ecut=    40.00 Ry     beta= 0.70
     CG style diagonalization
     ethr =  1.00E-02,  avg # of iterations =  3.1

     negative rho (up, down):  3.247E-01 8.613E-03

     total cpu time spent up to now is       44.2 secs

     total energy              =   -1933.12729450 Ry
     Harris-Foulkes estimate   =   -1946.12829766 Ry
     estimated scf accuracy    <      19.81390711 Ry

     total magnetization       =     1.00 Bohr mag/cell
     absolute magnetization    =     1.72 Bohr mag/cell

     iteration #  2     ecut=    40.00 Ry     beta= 0.70
     CG style diagonalization
     ethr =  5.07E-03,  avg # of iterations =  4.0

     negative rho (up, down):  3.593E-01 8.165E-03

     total cpu time spent up to now is       79.8 secs

     total energy              =   -1936.79859778 Ry
     Harris-Foulkes estimate   =   -1943.83244955 Ry
     estimated scf accuracy    <      13.76389815 Ry

     total magnetization       =     1.00 Bohr mag/cell
     absolute magnetization    =     1.34 Bohr mag/cell

     iteration #  3     ecut=    40.00 Ry     beta= 0.70
     CG style diagonalization
     ethr =  3.52E-03,  avg # of iterations =  3.8

     negative rho (up, down):  3.880E-01 9.559E-03

     total cpu time spent up to now is      112.8 secs

     total energy              =   -1939.12857678 Ry
     Harris-Foulkes estimate   =   -1940.77642955 Ry
     estimated scf accuracy    <       3.82042240 Ry

     total magnetization       =     1.00 Bohr mag/cell
     absolute magnetization    =     2.48 Bohr mag/cell

     iteration #  4     ecut=    40.00 Ry     beta= 0.70
     CG style diagonalization
     ethr =  9.77E-04,  avg # of iterations =  3.6

     negative rho (up, down):  4.477E-01 9.457E-03

     total cpu time spent up to now is      143.6 secs

     total energy              =   -1939.99681822 Ry
     Harris-Foulkes estimate   =   -1940.28931316 Ry
     estimated scf accuracy    <       0.94780507 Ry

     total magnetization       =     1.00 Bohr mag/cell
     absolute magnetization    =     1.71 Bohr mag/cell

     iteration #  5     ecut=    40.00 Ry     beta= 0.70
     CG style diagonalization
     ethr =  2.42E-04,  avg # of iterations =  3.4

     negative rho (up, down):  4.098E-01 4.513E-02

     total cpu time spent up to now is      172.7 secs

     total energy              =   -1940.11420869 Ry
     Harris-Foulkes estimate   =   -1940.19260256 Ry
     estimated scf accuracy    <       0.31001273 Ry

     total magnetization       =     1.00 Bohr mag/cell
     absolute magnetization    =     2.34 Bohr mag/cell

     iteration #  6     ecut=    40.00 Ry     beta= 0.70
     CG style diagonalization
     c_bands:  2 eigenvalues not converged
     ethr =  7.93E-05,  avg # of iterations =  3.3

     negative rho (up, down):  4.270E-01 3.545E-02

     total cpu time spent up to now is      200.4 secs

     total energy              =   -1940.14258069 Ry
     Harris-Foulkes estimate   =   -1940.16910802 Ry
     estimated scf accuracy    <       0.08912214 Ry

     total magnetization       =     1.00 Bohr mag/cell
     absolute magnetization    =     1.86 Bohr mag/cell

     iteration #  7     ecut=    40.00 Ry     beta= 0.70
     CG style diagonalization
     c_bands:  3 eigenvalues not converged
     c_bands:  1 eigenvalues not converged
     ethr =  2.28E-05,  avg # of iterations =  3.7

     negative rho (up, down):  4.608E-01 1.414E-02

     total cpu time spent up to now is      232.3 secs

     total energy              =   -1940.16112811 Ry
     Harris-Foulkes estimate   =   -1940.16198569 Ry
     estimated scf accuracy    <       0.01880593 Ry

     total magnetization       =     1.00 Bohr mag/cell
     absolute magnetization    =     1.80 Bohr mag/cell

     iteration #  8     ecut=    40.00 Ry     beta= 0.70
     CG style diagonalization
     c_bands:  3 eigenvalues not converged
     c_bands:  3 eigenvalues not converged
     ethr =  4.81E-06,  avg # of iterations =  6.1

     negative rho (up, down):  4.792E-01 7.372E-03

     total cpu time spent up to now is      286.3 secs

     total energy              =   -1940.16666965 Ry
     Harris-Foulkes estimate   =   -1940.16620838 Ry
     estimated scf accuracy    <       0.00560932 Ry

     total magnetization       =     1.00 Bohr mag/cell
     absolute magnetization    =     1.89 Bohr mag/cell

     iteration #  9     ecut=    40.00 Ry     beta= 0.70
     CG style diagonalization
     c_bands:  3 eigenvalues not converged
     c_bands:  3 eigenvalues not converged
     ethr =  1.43E-06,  avg # of iterations =  7.7

     negative rho (up, down):  4.823E-01 8.075E-03

     total cpu time spent up to now is      352.5 secs

     total energy              =   -1940.16813121 Ry
     Harris-Foulkes estimate   =   -1940.16855196 Ry
     estimated scf accuracy    <       0.00256142 Ry

     total magnetization       =     1.00 Bohr mag/cell
     absolute magnetization    =     1.93 Bohr mag/cell

     iteration # 10     ecut=    40.00 Ry     beta= 0.70
     CG style diagonalization
     c_bands:  2 eigenvalues not converged
     ethr =  6.55E-07,  avg # of iterations =  3.7

     negative rho (up, down):  4.818E-01 8.100E-03

     total cpu time spent up to now is      384.4 secs

     total energy              =   -1940.16847077 Ry
     Harris-Foulkes estimate   =   -1940.16923681 Ry
     estimated scf accuracy    <       0.00297150 Ry

     total magnetization       =     1.00 Bohr mag/cell
     absolute magnetization    =     2.00 Bohr mag/cell

     iteration # 11     ecut=    40.00 Ry     beta= 0.70
     CG style diagonalization
     c_bands:  1 eigenvalues not converged
     ethr =  6.55E-07,  avg # of iterations =  3.2

     negative rho (up, down):  4.799E-01 8.031E-03

     total cpu time spent up to now is      411.0 secs

     total energy              =   -1940.16888910 Ry
     Harris-Foulkes estimate   =   -1940.16893874 Ry
     estimated scf accuracy    <       0.00021559 Ry

     total magnetization       =     1.00 Bohr mag/cell
     absolute magnetization    =     1.99 Bohr mag/cell

     iteration # 12     ecut=    40.00 Ry     beta= 0.70
     CG style diagonalization
     ethr =  5.51E-08,  avg # of iterations =  3.7

     negative rho (up, down):  4.808E-01 8.191E-03

     total cpu time spent up to now is      442.3 secs

     total energy              =   -1940.16899512 Ry
     Harris-Foulkes estimate   =   -1940.16898355 Ry
     estimated scf accuracy    <       0.00009377 Ry

     total magnetization       =     1.00 Bohr mag/cell
     absolute magnetization    =     2.00 Bohr mag/cell

     iteration # 13     ecut=    40.00 Ry     beta= 0.70
     CG style diagonalization
     ethr =  2.40E-08,  avg # of iterations =  3.5

     negative rho (up, down):  4.805E-01 8.183E-03

     total cpu time spent up to now is      472.7 secs

     total energy              =   -1940.16902281 Ry
     Harris-Foulkes estimate   =   -1940.16902565 Ry
     estimated scf accuracy    <       0.00002063 Ry

     total magnetization       =     1.00 Bohr mag/cell
     absolute magnetization    =     2.02 Bohr mag/cell

     iteration # 14     ecut=    40.00 Ry     beta= 0.70
     CG style diagonalization
     ethr =  5.28E-09,  avg # of iterations =  3.4

     negative rho (up, down):  4.803E-01 8.229E-03

     total cpu time spent up to now is      501.5 secs

     total energy              =   -1940.16902541 Ry
     Harris-Foulkes estimate   =   -1940.16902646 Ry
     estimated scf accuracy    <       0.00000881 Ry

     total magnetization       =     1.00 Bohr mag/cell
     absolute magnetization    =     2.02 Bohr mag/cell

     iteration # 15     ecut=    40.00 Ry     beta= 0.70
     CG style diagonalization
     ethr =  2.25E-09,  avg # of iterations =  3.4

     negative rho (up, down):  4.802E-01 8.254E-03

     total cpu time spent up to now is      530.8 secs

     total energy              =   -1940.16902786 Ry
     Harris-Foulkes estimate   =   -1940.16902747 Ry
     estimated scf accuracy    <       0.00000290 Ry

     total magnetization       =     1.00 Bohr mag/cell
     absolute magnetization    =     2.02 Bohr mag/cell

     iteration # 16     ecut=    40.00 Ry     beta= 0.70
     CG style diagonalization
     ethr =  7.42E-10,  avg # of iterations =  3.6

     negative rho (up, down):  4.801E-01 8.275E-03

     total cpu time spent up to now is      561.6 secs

     total energy              =   -1940.16902892 Ry
     Harris-Foulkes estimate   =   -1940.16902965 Ry
     estimated scf accuracy    <       0.00000398 Ry

     total magnetization       =     1.00 Bohr mag/cell
     absolute magnetization    =     2.02 Bohr mag/cell

     iteration # 17     ecut=    40.00 Ry     beta= 0.70
     CG style diagonalization
     ethr =  7.42E-10,  avg # of iterations =  3.3

     negative rho (up, down):  4.801E-01 8.282E-03

     total cpu time spent up to now is      589.0 secs

     total energy              =   -1940.16902973 Ry
     Harris-Foulkes estimate   =   -1940.16902984 Ry
     estimated scf accuracy    <       0.00000060 Ry

     total magnetization       =     1.00 Bohr mag/cell
     absolute magnetization    =     2.03 Bohr mag/cell

     iteration # 18     ecut=    40.00 Ry     beta= 0.70
     CG style diagonalization
     ethr =  1.52E-10,  avg # of iterations =  3.5

     negative rho (up, down):  4.801E-01 8.279E-03

     total cpu time spent up to now is      618.4 secs

     total energy              =   -1940.16902985 Ry
     Harris-Foulkes estimate   =   -1940.16902990 Ry
     estimated scf accuracy    <       0.00000023 Ry

     total magnetization       =     1.00 Bohr mag/cell
     absolute magnetization    =     2.03 Bohr mag/cell

     iteration # 19     ecut=    40.00 Ry     beta= 0.70
     CG style diagonalization
     ethr =  5.82E-11,  avg # of iterations =  3.5

     negative rho (up, down):  4.801E-01 8.280E-03

     total cpu time spent up to now is      647.9 secs

     total energy              =   -1940.16902990 Ry
     Harris-Foulkes estimate   =   -1940.16902992 Ry
     estimated scf accuracy    <       0.00000005 Ry

     total magnetization       =     1.00 Bohr mag/cell
     absolute magnetization    =     2.03 Bohr mag/cell

     iteration # 20     ecut=    40.00 Ry     beta= 0.70
     CG style diagonalization
     ethr =  1.32E-11,  avg # of iterations =  3.8

     negative rho (up, down):  4.801E-01 8.280E-03

     total cpu time spent up to now is      681.3 secs

     total energy              =   -1940.16902991 Ry
     Harris-Foulkes estimate   =   -1940.16902995 Ry
     estimated scf accuracy    <       0.00000010 Ry

     total magnetization       =     1.00 Bohr mag/cell
     absolute magnetization    =     2.03 Bohr mag/cell

     iteration # 21     ecut=    40.00 Ry     beta= 0.70
     CG style diagonalization
     ethr =  1.32E-11,  avg # of iterations =  3.3

     negative rho (up, down):  4.801E-01 8.279E-03

     total cpu time spent up to now is      709.2 secs

     total energy              =   -1940.16902993 Ry
     Harris-Foulkes estimate   =   -1940.16902993 Ry
     estimated scf accuracy    <       0.00000001 Ry

     total magnetization       =     1.00 Bohr mag/cell
     absolute magnetization    =     2.03 Bohr mag/cell

     iteration # 22     ecut=    40.00 Ry     beta= 0.70
     CG style diagonalization
     ethr =  3.45E-12,  avg # of iterations =  3.4

     negative rho (up, down):  4.801E-01 8.276E-03

     total cpu time spent up to now is      738.0 secs

     total energy              =   -1940.16902991 Ry
     Harris-Foulkes estimate   =   -1940.16902993 Ry
     estimated scf accuracy    <          7.7E-10 Ry

     total magnetization       =     1.00 Bohr mag/cell
     absolute magnetization    =     2.03 Bohr mag/cell

     iteration # 23     ecut=    40.00 Ry     beta= 0.70
     CG style diagonalization
     ethr =  1.96E-13,  avg # of iterations =  4.0

     negative rho (up, down):  4.801E-01 8.276E-03

     total cpu time spent up to now is      773.5 secs

     total energy              =   -1940.16902990 Ry
     Harris-Foulkes estimate   =   -1940.16902991 Ry
     estimated scf accuracy    <          5.9E-10 Ry

     total magnetization       =     1.00 Bohr mag/cell
     absolute magnetization    =     2.03 Bohr mag/cell

     iteration # 24     ecut=    40.00 Ry     beta= 0.70
     CG style diagonalization
     ethr =  1.52E-13,  avg # of iterations =  3.5

     negative rho (up, down):  4.801E-01 8.276E-03

     total cpu time spent up to now is      803.5 secs

     total energy              =   -1940.16902986 Ry
     Harris-Foulkes estimate   =   -1940.16902990 Ry
     estimated scf accuracy    <          7.0E-11 Ry

     total magnetization       =     1.00 Bohr mag/cell
     absolute magnetization    =     2.03 Bohr mag/cell

     iteration # 25     ecut=    40.00 Ry     beta= 0.70
     CG style diagonalization
     ethr =  1.00E-13,  avg # of iterations =  3.2

     negative rho (up, down):  4.801E-01 8.276E-03

     total cpu time spent up to now is      830.1 secs

     total energy              =   -1940.16902986 Ry
     Harris-Foulkes estimate   =   -1940.16902986 Ry
     estimated scf accuracy    <          2.0E-11 Ry

     total magnetization       =     1.00 Bohr mag/cell
     absolute magnetization    =     2.03 Bohr mag/cell

     iteration # 26     ecut=    40.00 Ry     beta= 0.70
     CG style diagonalization
     ethr =  1.00E-13,  avg # of iterations =  3.1

     negative rho (up, down):  4.801E-01 8.275E-03

     total cpu time spent up to now is      854.9 secs

     total energy              =   -1940.16902986 Ry
     Harris-Foulkes estimate   =   -1940.16902986 Ry
     estimated scf accuracy    <          4.4E-12 Ry

     total magnetization       =     1.00 Bohr mag/cell
     absolute magnetization    =     2.03 Bohr mag/cell

     iteration # 27     ecut=    40.00 Ry     beta= 0.70
     CG style diagonalization
     ethr =  1.00E-13,  avg # of iterations =  3.1

     negative rho (up, down):  4.801E-01 8.276E-03

     total cpu time spent up to now is      880.0 secs

     total energy              =   -1940.16902986 Ry
     Harris-Foulkes estimate   =   -1940.16902986 Ry
     estimated scf accuracy    <          2.3E-12 Ry

     total magnetization       =     1.00 Bohr mag/cell
     absolute magnetization    =     2.03 Bohr mag/cell

     iteration # 28     ecut=    40.00 Ry     beta= 0.70
     CG style diagonalization
     ethr =  1.00E-13,  avg # of iterations =  3.0

     negative rho (up, down):  4.801E-01 8.274E-03
 
     Magnetic moment per site:
     atom:    1    charge:    0.8536    magn:    0.0000    constr:    0.0000
     atom:    2    charge:    0.8488    magn:    0.0011    constr:    0.0000
     atom:    3    charge:    0.8496    magn:   -0.0003    constr:    0.0000
     atom:    4    charge:    0.8516    magn:    0.0003    constr:    0.0000
     atom:    5    charge:    0.8543    magn:    0.0009    constr:    0.0000
     atom:    6    charge:    0.8526    magn:   -0.0001    constr:    0.0000
     atom:    7    charge:    0.8537    magn:    0.0013    constr:    0.0000
     atom:    8    charge:    0.8525    magn:    0.0007    constr:    0.0000
     atom:    9    charge:    0.8537    magn:    0.0009    constr:    0.0000
     atom:   10    charge:    0.8463    magn:    0.0023    constr:    0.0000
     atom:   11    charge:    0.8500    magn:   -0.0004    constr:    0.0000
     atom:   12    charge:    0.8551    magn:    0.0003    constr:    0.0000
     atom:   13    charge:    0.8543    magn:    0.0001    constr:    0.0000
     atom:   14    charge:    0.8526    magn:   -0.0001    constr:    0.0000
     atom:   15    charge:    0.8527    magn:    0.0012    constr:    0.0000
     atom:   16    charge:    0.8581    magn:    0.0047    constr:    0.0000
     atom:   17    charge:    0.8651    magn:    0.0107    constr:    0.0000
     atom:   18    charge:    0.8535    magn:    0.0027    constr:    0.0000
     atom:   19    charge:    0.8626    magn:    0.0049    constr:    0.0000
     atom:   20    charge:    0.8551    magn:    0.0003    constr:    0.0000
     atom:   21    charge:    0.8543    magn:    0.0009    constr:    0.0000
     atom:   22    charge:    0.8494    magn:    0.0001    constr:    0.0000
     atom:   23    charge:    0.8464    magn:   -0.0004    constr:    0.0000
     atom:   24    charge:    0.8431    magn:    0.0093    constr:    0.0000
     atom:   25    charge:    1.6230    magn:    0.2010    constr:    0.0000
     atom:   26    charge:    0.8535    magn:    0.0027    constr:    0.0000
     atom:   27    charge:    0.8500    magn:   -0.0004    constr:    0.0000
     atom:   28    charge:    0.8516    magn:    0.0003    constr:    0.0000
     atom:   29    charge:    0.8496    magn:    0.0008    constr:    0.0000
     atom:   30    charge:    0.8498    magn:    0.0009    constr:    0.0000
     atom:   31    charge:    0.8489    magn:    0.0053    constr:    0.0000
     atom:   32    charge:    0.8431    magn:    0.0093    constr:    0.0000
     atom:   33    charge:    0.8650    magn:    0.0107    constr:    0.0000
     atom:   34    charge:    0.8463    magn:    0.0023    constr:    0.0000
     atom:   35    charge:    0.8496    magn:   -0.0003    constr:    0.0000
     atom:   36    charge:    0.8488    magn:   -0.0003    constr:    0.0000
     atom:   37    charge:    0.8482    magn:    0.0004    constr:    0.0000
     atom:   38    charge:    0.8498    magn:    0.0009    constr:    0.0000
     atom:   39    charge:    0.8464    magn:   -0.0004    constr:    0.0000
     atom:   40    charge:    0.8581    magn:    0.0047    constr:    0.0000
     atom:   41    charge:    0.8537    magn:    0.0009    constr:    0.0000
     atom:   42    charge:    0.8488    magn:    0.0011    constr:    0.0000
     atom:   43    charge:    0.8488    magn:    0.0011    constr:    0.0000
     atom:   44    charge:    0.8488    magn:   -0.0003    constr:    0.0000
     atom:   45    charge:    0.8496    magn:    0.0008    constr:    0.0000
     atom:   46    charge:    0.8494    magn:    0.0001    constr:    0.0000
     atom:   47    charge:    0.8527    magn:    0.0012    constr:    0.0000
     atom:   48    charge:    0.8525    magn:    0.0007    constr:    0.0000
     atom:   49    charge:    0.8536    magn:    0.0000    constr:    0.0000
     atom:   50    charge:    2.6983    magn:   -0.0002    constr:    0.0000
     atom:   51    charge:    2.6968    magn:   -0.0003    constr:    0.0000
     atom:   52    charge:    2.6868    magn:    0.0022    constr:    0.0000
     atom:   53    charge:    2.6961    magn:    0.0038    constr:    0.0000
     atom:   54    charge:    2.6979    magn:   -0.0004    constr:    0.0000
     atom:   55    charge:    2.6902    magn:    0.0008    constr:    0.0000
     atom:   56    charge:    2.6928    magn:    0.0003    constr:    0.0000
     atom:   57    charge:    2.6935    magn:    0.0017    constr:    0.0000
     atom:   58    charge:    2.6939    magn:    0.0030    constr:    0.0000
     atom:   59    charge:    2.6847    magn:    0.0162    constr:    0.0000
     atom:   60    charge:    2.6865    magn:   -0.0169    constr:    0.0000
     atom:   61    charge:    2.6943    magn:    0.0140    constr:    0.0000
     atom:   62    charge:    2.6898    magn:    0.0099    constr:    0.0000
     atom:   63    charge:    2.6902    magn:    0.0008    constr:    0.0000
     atom:   64    charge:    2.6983    magn:    0.0000    constr:    0.0000
     atom:   65    charge:    2.6985    magn:    0.0045    constr:    0.0000
     atom:   66    charge:    2.6959    magn:   -0.0107    constr:    0.0000
     atom:   67    charge:    1.7367    magn:   -0.0776    constr:    0.0000
     atom:   68    charge:    2.6792    magn:    0.0963    constr:    0.0000
     atom:   69    charge:    2.6943    magn:    0.0140    constr:    0.0000
     atom:   70    charge:    2.6979    magn:   -0.0004    constr:    0.0000
     atom:   71    charge:    2.6972    magn:    0.0004    constr:    0.0000
     atom:   72    charge:    2.6923    magn:   -0.0004    constr:    0.0000
     atom:   73    charge:    2.6870    magn:    0.0078    constr:    0.0000
     atom:   74    charge:    2.6578    magn:    0.0907    constr:    0.0000
     atom:   75    charge:    1.7367    magn:   -0.0776    constr:    0.0000
     atom:   76    charge:    2.6865    magn:   -0.0169    constr:    0.0000
     atom:   77    charge:    2.6961    magn:    0.0038    constr:    0.0000
     atom:   78    charge:    2.6959    magn:   -0.0002    constr:    0.0000
     atom:   79    charge:    2.6920    magn:   -0.0001    constr:    0.0000
     atom:   80    charge:    2.6873    magn:    0.0047    constr:    0.0000
     atom:   81    charge:    2.6870    magn:    0.0078    constr:    0.0000
     atom:   82    charge:    2.6959    magn:   -0.0107    constr:    0.0000
     atom:   83    charge:    2.6847    magn:    0.0162    constr:    0.0000
     atom:   84    charge:    2.6868    magn:    0.0022    constr:    0.0000
     atom:   85    charge:    2.6938    magn:   -0.0000    constr:    0.0000
     atom:   86    charge:    2.6932    magn:    0.0004    constr:    0.0000
     atom:   87    charge:    2.6920    magn:   -0.0001    constr:    0.0000
     atom:   88    charge:    2.6923    magn:   -0.0004    constr:    0.0000
     atom:   89    charge:    2.6985    magn:    0.0045    constr:    0.0000
     atom:   90    charge:    2.6939    magn:    0.0030    constr:    0.0000
     atom:   91    charge:    2.6968    magn:   -0.0003    constr:    0.0000
     atom:   92    charge:    2.6998    magn:    0.0005    constr:    0.0000
     atom:   93    charge:    2.6938    magn:   -0.0000    constr:    0.0000
     atom:   94    charge:    2.6959    magn:   -0.0002    constr:    0.0000
     atom:   95    charge:    2.6972    magn:    0.0004    constr:    0.0000
     atom:   96    charge:    2.6983    magn:    0.0000    constr:    0.0000
     atom:   97    charge:    2.6935    magn:    0.0017    constr:    0.0000
     atom:   98    charge:    2.6983    magn:   -0.0002    constr:    0.0000

     total cpu time spent up to now is      904.6 secs

     End of self-consistent calculation

 ------ SPIN UP ------------


          k = 0.0000 0.0000 0.0000 ( 77467 PWs)   bands (ev):

   -21.8166 -21.6254 -21.4001 -21.3893 -21.3813 -21.3024 -21.2863 -20.8783
   -20.6647 -20.6554 -20.6237 -20.5513 -20.5475 -20.4311 -20.2972 -20.2926
   -20.2797 -20.1311 -20.1072 -19.5933 -19.4208 -19.4074 -19.4004 -19.3952
   -19.3842 -19.3750 -19.3701 -19.3319 -19.3042 -19.1786 -19.1664 -19.0405
   -18.9768 -18.9741 -18.9518 -18.7693 -18.7677 -18.5546 -18.5466 -18.5261
   -18.5232 -18.4751 -18.4262 -18.4044 -18.3708 -18.3465 -18.3455 -16.7290
   -14.7400 -13.1286 -12.7796 -12.7738 -12.7496 -12.7221 -12.7171 -12.6553
   -12.5685 -12.5342 -12.5255 -12.4789 -12.4115 -12.1536 -12.0709 -12.0620
   -12.0266 -11.9793 -11.9452 -11.5596 -11.4212 -11.4130 -11.3954 -11.3946
   -11.3722 -11.3697 -11.3616 -11.3167 -11.3004 -11.0764 -11.0469 -10.8760
   -10.7254 -10.7120 -10.6780 -10.6518 -10.5034 -10.0722 -10.0335 -10.0105
    -9.9376  -9.8782  -9.8181  -9.3997  -9.3376  -9.3218  -9.3139  -9.2917
    -9.2817  -9.2233  -9.0597  -8.9508  -8.9472  -8.9172  -8.9141  -8.9082
    -8.9020  -8.8899  -8.8819  -8.8641  -8.8359  -8.8307  -8.8273  -8.8262
    -8.8207  -8.7985  -8.7980  -8.7482  -8.7290  -8.7077  -8.6562  -8.6422
    -8.4699  -8.4531  -8.2227  -8.1928  -8.1924  -8.0926  -8.0855  -7.9885
    -7.8610  -7.8413  -7.8382  -7.7981  -7.7260  -7.7226  -7.5599  -7.5137
    -7.5042  -7.4776  -7.4756  -7.4559  -7.4432  -7.4077  -7.4040  -7.3567
    -7.3418  -7.3403  -7.3333  -7.2782  -7.2257  -7.2249  -7.1804  -7.0385
    -7.0306  -7.0004  -6.8934  -6.8148  -6.6531  -6.5346  -6.3016  -6.1958
    -6.1877  -6.1599  -6.0940  -6.0814  -6.0729  -6.0716  -6.0704  -6.0574
    -6.0510  -6.0477  -6.0318  -5.9751  -5.8695  -5.8151  -5.7976  -5.7010
    -5.5455  -5.4555  -5.4542  -5.4464  -5.3102  -5.2373  -5.1004  -5.0349
    -4.8038  -4.8029  -4.7815  -4.7637  -4.6804  -4.6711  -4.5747  -4.5224
    -4.5169  -4.5049  -4.3513  -3.0715  -0.0558   0.1760   0.6729   0.6758
     0.7064   0.7192   0.7260   0.7287   0.7765   0.7907   0.8042   0.8054
     0.8108   0.8260   0.8336   0.8521   0.8617   0.8916   0.9080   0.9336
     0.9606   1.1143   1.2116   1.2294   1.2327   1.2613   1.3106   1.3166
     1.3216   1.3263   1.3382   1.3578   1.3915   1.4353   1.4376   1.4409
     1.4495   1.4598   1.4834   1.8821   2.0567   2.0912   2.0944   2.1079
     2.1080   2.1271   2.1361   2.2082   2.2866

 ------ SPIN DOWN ----------


          k = 0.0000 0.0000 0.0000 ( 77467 PWs)   bands (ev):

   -21.7622 -21.5281 -21.3970 -21.3838 -21.3746 -21.2958 -21.2387 -20.8197
   -20.6576 -20.6371 -20.6230 -20.5469 -20.5319 -20.4147 -20.2891 -20.2865
   -20.2562 -20.1084 -20.0927 -19.5516 -19.4135 -19.4009 -19.3948 -19.3894
   -19.3796 -19.3727 -19.3578 -19.3111 -19.3018 -19.1607 -19.1563 -19.0306
   -18.9716 -18.9715 -18.9271 -18.7679 -18.7525 -18.5459 -18.5406 -18.5186
   -18.5063 -18.4691 -18.4155 -18.3972 -18.3683 -18.3402 -18.3291 -16.6064
   -14.8608 -13.0556 -12.7735 -12.7649 -12.7458 -12.7197 -12.7137 -12.6466
   -12.5624 -12.5276 -12.5204 -12.4688 -12.3993 -12.1421 -12.0622 -12.0529
   -12.0264 -11.9754 -11.9334 -11.5388 -11.4074 -11.4003 -11.3901 -11.3837
   -11.3690 -11.3575 -11.3572 -11.3066 -11.2888 -11.0830 -11.0341 -10.8571
   -10.7194 -10.7095 -10.6700 -10.6417 -10.4944 -10.0577 -10.0211  -9.9995
    -9.9269  -9.8731  -9.8117  -9.3872  -9.3108  -9.3031  -9.3011  -9.2882
    -9.2777  -9.2223  -9.0402  -8.9337  -8.9108  -8.9067  -8.9039  -8.8910
    -8.8848  -8.8763  -8.8558  -8.8431  -8.8280  -8.8256  -8.8232  -8.8099
    -8.8029  -8.7938  -8.7915  -8.7321  -8.7230  -8.6495  -8.6321  -8.5971
    -8.4688  -8.4507  -8.2200  -8.1913  -8.1900  -8.0826  -8.0744  -7.8612
    -7.8387  -7.8220  -7.7966  -7.7927  -7.7128  -7.6834  -7.5469  -7.5029
    -7.4958  -7.4740  -7.4538  -7.4416  -7.3999  -7.3996  -7.3838  -7.3364
    -7.3299  -7.3248  -7.2911  -7.2749  -7.2159  -7.1843  -7.1555  -7.0287
    -7.0277  -6.9960  -6.8820  -6.8076  -6.6569  -6.5451  -6.1895  -6.1820
    -6.1551  -6.1322  -6.0754  -6.0661  -6.0641  -6.0572  -6.0526  -6.0458
    -6.0371  -6.0209  -5.9822  -5.9591  -5.8240  -5.8197  -5.7880  -5.7111
    -5.4970  -5.4451  -5.4365  -5.4063  -5.2809  -5.2408  -5.1130  -5.0466
    -4.7805  -4.7703  -4.7460  -4.7449  -4.6675  -4.6560  -4.5523  -4.5127
    -4.4932  -4.4898  -4.1615  -3.3878   0.1845   0.4780   0.7060   0.7138
     0.7165   0.7331   0.7457   0.7527   0.7931   0.8054   0.8069   0.8080
     0.8142   0.8355   0.8538   0.8629   0.8804   0.9202   0.9401   0.9467
     1.0133   1.1688   1.2288   1.2559   1.2626   1.3111   1.3175   1.3177
     1.3225   1.3280   1.3460   1.3648   1.4186   1.4347   1.4368   1.4406
     1.4507   1.4607   1.4909   1.8885   2.0975   2.1019   2.1127   2.1235
     2.1417   2.1543   2.1917   2.2121   2.3000

     highest occupied, lowest unoccupied level (ev):    -4.3513   -4.1615

!    total energy              =   -1940.16902986 Ry
     Harris-Foulkes estimate   =   -1940.16902986 Ry
     estimated scf accuracy    <          9.3E-13 Ry

     total all-electron energy =     -7769.993507 Ry

     The total energy is the sum of the following terms:

     one-electron contribution =  -10644.25313997 Ry
     hartree contribution      =    5407.71606334 Ry
     xc contribution           =    -430.66219458 Ry
     ewald contribution        =    4370.47795291 Ry
     DFT-D3 Dispersion         =      -0.27013358 Ry
     one-center paw contrib.   =    -643.17757798 Ry

     total magnetization       =     1.00 Bohr mag/cell
     absolute magnetization    =     2.03 Bohr mag/cell

     convergence has been achieved in  28 iterations

     negative rho (up, down):  4.801E-01 8.274E-03

     Forces acting on atoms (cartesian axes, Ry/au):

     atom    1 type  1   force =     0.00000674   -0.00001001    0.00000000
     atom    2 type  1   force =     0.00000209   -0.00001203    0.00000000
     atom    3 type  1   force =    -0.00001832   -0.00000364    0.00000000
     atom    4 type  1   force =    -0.00001612    0.00001029    0.00000000
     atom    5 type  1   force =     0.00001111    0.00001379    0.00000000
     atom    6 type  1   force =     0.00001691    0.00000669    0.00000000
     atom    7 type  1   force =     0.00000662   -0.00000424    0.00000000
     atom    8 type  1   force =     0.00000247   -0.00000906    0.00000000
     atom    9 type  1   force =     0.00000302    0.00000222    0.00000000
     atom   10 type  1   force =     0.00000270    0.00000690    0.00000000
     atom   11 type  1   force =     0.00000855    0.00000875    0.00000000
     atom   12 type  1   force =     0.00000329    0.00000531    0.00000000
     atom   13 type  1   force =     0.00001077   -0.00000633    0.00000000
     atom   14 type  1   force =     0.00000258   -0.00001823    0.00000000
     atom   15 type  1   force =    -0.00000333   -0.00000985    0.00000000
     atom   16 type  1   force =    -0.00000805    0.00000525    0.00000000
     atom   17 type  1   force =    -0.00000507    0.00001350    0.00000000
     atom   18 type  1   force =     0.00000538   -0.00000129    0.00000000
     atom   19 type  1   force =     0.00001143   -0.00000684    0.00000000
     atom   20 type  1   force =    -0.00000329   -0.00000542    0.00000000
     atom   21 type  1   force =    -0.00000642   -0.00001653    0.00000000
     atom   22 type  1   force =    -0.00000658   -0.00000959    0.00000000
     atom   23 type  1   force =     0.00000792   -0.00000553    0.00000000
     atom   24 type  1   force =    -0.00001685    0.00000571    0.00000000
     atom   25 type  4   force =    -0.00000863    0.00000512    0.00000000
     atom   26 type  1   force =     0.00000315   -0.00000411    0.00000000
     atom   27 type  1   force =    -0.00000358   -0.00001157    0.00000000
     atom   28 type  1   force =    -0.00001713    0.00000905    0.00000000
     atom   29 type  1   force =    -0.00000596    0.00001407    0.00000000
     atom   30 type  1   force =     0.00002000   -0.00001090    0.00000000
     atom   31 type  1   force =     0.00000417   -0.00000267    0.00000000
     atom   32 type  1   force =    -0.00001350    0.00001143    0.00000000
     atom   33 type  1   force =    -0.00001388   -0.00000191    0.00000000
     atom   34 type  1   force =    -0.00000442   -0.00000535    0.00000000
     atom   35 type  1   force =    -0.00000592    0.00001806    0.00000000
     atom   36 type  1   force =    -0.00000591    0.00001622    0.00000000
     atom   37 type  1   force =    -0.00000259    0.00000147    0.00000000
     atom   38 type  1   force =     0.00001942   -0.00001189    0.00000000
     atom   39 type  1   force =     0.00000896   -0.00000405    0.00000000
     atom   40 type  1   force =    -0.00000815    0.00000472    0.00000000
     atom   41 type  1   force =    -0.00000011   -0.00000308    0.00000000
     atom   42 type  1   force =     0.00001190    0.00000432    0.00000000
     atom   43 type  1   force =     0.00001210   -0.00000713    0.00000000
     atom   44 type  1   force =    -0.00001715   -0.00000300    0.00000000
     atom   45 type  1   force =    -0.00001517   -0.00000181    0.00000000
     atom   46 type  1   force =     0.00000510    0.00001065    0.00000000
     atom   47 type  1   force =     0.00000708    0.00000808    0.00000000
     atom   48 type  1   force =     0.00000945    0.00000262    0.00000000
     atom   49 type  1   force =     0.00001206   -0.00000118    0.00000000
     atom   50 type  2   force =     0.00000640   -0.00000901    0.00000000
     atom   51 type  2   force =    -0.00000985   -0.00000330    0.00000000
     atom   52 type  2   force =    -0.00001545   -0.00000650    0.00000000
     atom   53 type  2   force =     0.00000068   -0.00001434    0.00000000
     atom   54 type  2   force =    -0.00000030   -0.00001051    0.00000000
     atom   55 type  2   force =    -0.00000901    0.00000904    0.00000000
     atom   56 type  2   force =    -0.00000106    0.00000087    0.00000000
     atom   57 type  2   force =    -0.00000209   -0.00000911    0.00000000
     atom   58 type  2   force =    -0.00000216   -0.00001248    0.00000000
     atom   59 type  2   force =    -0.00001843   -0.00000433    0.00000000
     atom   60 type  2   force =    -0.00001163   -0.00000634    0.00000000
     atom   61 type  2   force =     0.00000971   -0.00001235    0.00000000
     atom   62 type  2   force =     0.00000259   -0.00000142    0.00000000
     atom   63 type  2   force =    -0.00001234    0.00000348    0.00000000
     atom   64 type  2   force =    -0.00000712    0.00000263    0.00000000
     atom   65 type  2   force =     0.00000521   -0.00000487    0.00000000
     atom   66 type  2   force =    -0.00000562   -0.00000494    0.00000000
     atom   67 type  3   force =    -0.00001504    0.00000041    0.00000000
     atom   68 type  2   force =    -0.00000077    0.00000079    0.00000000
     atom   69 type  2   force =     0.00001596   -0.00000216    0.00000000
     atom   70 type  2   force =     0.00000907    0.00000544    0.00000000
     atom   71 type  2   force =     0.00000649    0.00000378    0.00000000
     atom   72 type  2   force =     0.00000130    0.00000187    0.00000000
     atom   73 type  2   force =     0.00000395   -0.00000200    0.00000000
     atom   74 type  2   force =    -0.00000829    0.00000495    0.00000000
     atom   75 type  5   force =    -0.00000787    0.00001196    0.00000000
     atom   76 type  2   force =    -0.00000037    0.00001323    0.00000000
     atom   77 type  2   force =     0.00001283    0.00000622    0.00000000
     atom   78 type  2   force =     0.00000494   -0.00000042    0.00000000
     atom   79 type  2   force =     0.00000428    0.00000013    0.00000000
     atom   80 type  2   force =    -0.00000001    0.00000006    0.00000000
     atom   81 type  2   force =     0.00000367   -0.00000212    0.00000000
     atom   82 type  2   force =     0.00000136    0.00000726    0.00000000
     atom   83 type  2   force =    -0.00000576    0.00001762    0.00000000
     atom   84 type  2   force =    -0.00000252    0.00001617    0.00000000
     atom   85 type  2   force =     0.00000177    0.00000587    0.00000000
     atom   86 type  2   force =     0.00000438   -0.00000241    0.00000000
     atom   87 type  2   force =     0.00000208   -0.00000376    0.00000000
     atom   88 type  2   force =    -0.00000109   -0.00000210    0.00000000
     atom   89 type  2   force =     0.00000649   -0.00000235    0.00000000
     atom   90 type  2   force =     0.00000937    0.00000751    0.00000000
     atom   91 type  2   force =    -0.00000225    0.00000999    0.00000000
     atom   92 type  2   force =     0.00000673   -0.00000345    0.00000000
     atom   93 type  2   force =    -0.00000399   -0.00000436    0.00000000
     atom   94 type  2   force =     0.00000278   -0.00000422    0.00000000
     atom   95 type  2   force =    -0.00000015   -0.00000764    0.00000000
     atom   96 type  2   force =    -0.00000588    0.00000467    0.00000000
     atom   97 type  2   force =     0.00000688    0.00000627    0.00000000
     atom   98 type  2   force =     0.00001129   -0.00000071    0.00000000

     Total force =     0.000119     Total SCF correction =     0.000002


     Computing stress (Cartesian axis) and pressure


     negative rho (up, down):  4.801E-01 8.274E-03
          total   stress  (Ry/bohr**3)                   (kbar)     P=   -0.17
  -0.00000004   0.00000000   0.00000000         -0.01      0.00      0.00
   0.00000000  -0.00000004   0.00000000          0.00     -0.01      0.00
   0.00000000   0.00000000  -0.00000333          0.00      0.00     -0.49


     BFGS Geometry Optimization

     number of scf cycles    =   1
     number of bfgs steps    =   0

     enthalpy new            =   -1940.1690298598 Ry

     new trust radius        =       0.0000341727 bohr
     new conv_thr            =            1.0E-12 Ry

     new unit-cell volume =  36233.13843 a.u.^3 (  5369.19709 Ang^3 )
     density =      0.36308 g/cm^3

CELL_PARAMETERS (alat= 33.23461096)
   1.001012429   0.000172412   0.000000000
  -0.500356901   0.866988398   0.000000000
   0.000000000   0.000000000   1.137203616

ATOMIC_POSITIONS (crystal)
B        0.047274089   0.094690386   0.500000000
B        0.047307021   0.237724082   0.500000000
B        0.047258891   0.380861858   0.500000000
B        0.047177245   0.523749959   0.500000000
B        0.047620925   0.666630752   0.500000000
B        0.047896737   0.809628521   0.500000000
B        0.047698934   0.952301053   0.500000000
B        0.189916761   0.094343210   0.500000000
B        0.189206301   0.236517884   0.500000000
B        0.190031893   0.380692400   0.500000000
B        0.189467833   0.523636072   0.500000000
B        0.189634788   0.666772590   0.500000000
B        0.190348117   0.809651882   0.500000000
B        0.190371475   0.952103256   0.500000000
B        0.333213801   0.094355914   0.500000000
B        0.332727308   0.236126899   0.500000000
B        0.331520199   0.377330763   0.500000000
B        0.332318842   0.524943053   0.500000000
B        0.331908688   0.668091309   0.500000000
B        0.333227410   0.810365217   0.500000000
B        0.333369251   0.952379076   0.500000000
B        0.476256620   0.095152035   0.500000000
B        0.476066372   0.237730584   0.500000000
B        0.475089210   0.379881251   0.500000000
C2       0.477386237   0.522613760   0.500000000
B        0.475056938   0.667681160   0.500000000
B        0.476363930   0.810532171   0.500000000
B        0.476250044   0.952822760   0.500000000
B        0.618992499   0.095303446   0.500000000
B        0.619004418   0.238025615   0.500000000
B        0.619051980   0.380948013   0.500000000
B        0.620118743   0.524910786   0.500000000
B        0.622669249   0.668479811   0.500000000
B        0.619307606   0.809968113   0.500000000
B        0.619138147   0.952741114   0.500000000
B        0.761869228   0.095322270   0.500000000
B        0.761822311   0.238177690   0.500000000
B        0.761974386   0.380995584   0.500000000
B        0.762269418   0.523933631   0.500000000
B        0.763873106   0.667272697   0.500000000
B        0.763482122   0.810793707   0.500000000
B        0.762275922   0.952692979   0.500000000
B        0.904823692   0.095176299   0.500000000
B        0.904677727   0.238130771   0.500000000
B        0.904696555   0.381007505   0.500000000
B        0.904847968   0.523743387   0.500000000
B        0.905644089   0.666786204   0.500000000
B        0.905656794   0.810083242   0.500000000
B        0.905309606   0.952725900   0.500000000
N        0.094961253   0.047205777   0.500000000
N        0.094401261   0.189598943   0.500000000
N        0.094836916   0.333099878   0.500000000
N        0.094541784   0.476040136   0.500000000
N        0.094730392   0.618916216   0.500000000
N        0.095282168   0.761889183   0.500000000
N        0.095306574   0.904693432   0.500000000
N        0.237939979   0.047085697   0.500000000
N        0.237303844   0.189235912   0.500000000
N        0.236506332   0.331466229   0.500000000
N        0.237010359   0.476192912   0.500000000
N        0.236809867   0.619235735   0.500000000
N        0.237881776   0.762118230   0.500000000
N        0.238110822   0.904717837   0.500000000
N        0.381101072   0.047344633   0.500000000
N        0.380919825   0.189289132   0.500000000
N        0.379993334   0.330356245   0.500000000
C1       0.382819680   0.476000071   0.500000000
N        0.378928700   0.621071308   0.500000000
N        0.380764274   0.763190137   0.500000000
N        0.381083788   0.905269610   0.500000000
N        0.523920143   0.047828046   0.500000000
N        0.523877058   0.190458303   0.500000000
N        0.523668873   0.333453836   0.500000000
N        0.523341964   0.476658038   0.500000000
C3       0.523999919   0.617180306   0.500000000
N        0.523807087   0.762989643   0.500000000
N        0.523959863   0.905458210   0.500000000
N        0.666698076   0.047856859   0.500000000
N        0.666620348   0.190549418   0.500000000
N        0.666572510   0.333427493   0.500000000
N        0.666546164   0.476331132   0.500000000
N        0.669643751   0.620006663   0.500000000
N        0.668533763   0.763493660   0.500000000
N        0.666900111   0.905163075   0.500000000
N        0.809608627   0.047790783   0.500000000
N        0.809444610   0.190555392   0.500000000
N        0.809450584   0.333379655   0.500000000
N        0.809541696   0.476122945   0.500000000
N        0.810710859   0.619080172   0.500000000
N        0.810764075   0.762696144   0.500000000
N        0.810401050   0.905598735   0.500000000
N        0.952395238   0.047604767   0.500000000
N        0.952209219   0.190391372   0.500000000
N        0.952143137   0.333301921   0.500000000
N        0.952171952   0.476079859   0.500000000
N        0.952655365   0.618898928   0.500000000
N        0.952914300   0.762060020   0.500000000
N        0.952794227   0.905038751   0.500000000



     Writing output data file C2Cn.save/
     NEW-OLD atomic charge density approx. for the potential
     NEW k-points:
   0.0000000   0.0000000   0.0000000   1.0000000
   0.0000000   0.0000000   0.0000000   1.0000000

     Check: negative core charge=   -0.000006

     negative rho (up, down):  4.801E-01 4.168E-03
     extrapolated charge  390.99930, renormalised to  391.00000

     total cpu time spent up to now is      923.9 secs

     Self-consistent Calculation

     iteration #  1     ecut=    40.00 Ry     beta= 0.70
     CG style diagonalization
     ethr =  1.00E-06,  avg # of iterations =  2.0

     Threshold (ethr) on eigenvalues was too large:
     Diagonalizing with lowered threshold

     CG style diagonalization
     ethr =  3.10E-12,  avg # of iterations = 13.1

     negative rho (up, down):  4.801E-01 7.579E-03

     total cpu time spent up to now is     1081.9 secs

     total energy              =   -1940.16903104 Ry
     Harris-Foulkes estimate   =   -1940.18745405 Ry
     estimated scf accuracy    <       0.00000002 Ry

     total magnetization       =     1.00 Bohr mag/cell
     absolute magnetization    =     2.03 Bohr mag/cell

     iteration #  2     ecut=    40.00 Ry     beta= 0.70
     CG style diagonalization
     ethr =  4.50E-12,  avg # of iterations =  4.2

     negative rho (up, down):  4.801E-01 7.790E-03

     total cpu time spent up to now is     1119.6 secs

     total energy              =   -1940.16903081 Ry
     Harris-Foulkes estimate   =   -1940.16903106 Ry
     estimated scf accuracy    <       0.00000002 Ry

     total magnetization       =     1.00 Bohr mag/cell
     absolute magnetization    =     2.03 Bohr mag/cell

     iteration #  3     ecut=    40.00 Ry     beta= 0.70
     CG style diagonalization
     ethr =  4.50E-12,  avg # of iterations =  3.5

     negative rho (up, down):  4.801E-01 8.061E-03

     total cpu time spent up to now is     1149.3 secs

     total energy              =   -1940.16903027 Ry
     Harris-Foulkes estimate   =   -1940.16903081 Ry
     estimated scf accuracy    <          2.0E-09 Ry

     total magnetization       =     1.00 Bohr mag/cell
     absolute magnetization    =     2.03 Bohr mag/cell

     iteration #  4     ecut=    40.00 Ry     beta= 0.70
     CG style diagonalization
     ethr =  5.07E-13,  avg # of iterations =  4.0

     negative rho (up, down):  4.801E-01 8.217E-03

     total cpu time spent up to now is     1184.5 secs

     total energy              =   -1940.16902998 Ry
     Harris-Foulkes estimate   =   -1940.16903027 Ry
     estimated scf accuracy    <          3.8E-09 Ry

     total magnetization       =     1.00 Bohr mag/cell
     absolute magnetization    =     2.03 Bohr mag/cell

     iteration #  5     ecut=    40.00 Ry     beta= 0.70
     CG style diagonalization
     ethr =  5.07E-13,  avg # of iterations =  3.4

     negative rho (up, down):  4.801E-01 8.250E-03

     total cpu time spent up to now is     1213.2 secs

     total energy              =   -1940.16902993 Ry
     Harris-Foulkes estimate   =   -1940.16902998 Ry
     estimated scf accuracy    <          2.5E-10 Ry

     total magnetization       =     1.00 Bohr mag/cell
     absolute magnetization    =     2.03 Bohr mag/cell

     iteration #  6     ecut=    40.00 Ry     beta= 0.70
     CG style diagonalization
     ethr =  1.00E-13,  avg # of iterations =  3.4

     negative rho (up, down):  4.801E-01 8.282E-03

     total cpu time spent up to now is     1241.4 secs

     total energy              =   -1940.16902988 Ry
     Harris-Foulkes estimate   =   -1940.16902993 Ry
     estimated scf accuracy    <          5.6E-11 Ry

     total magnetization       =     1.00 Bohr mag/cell
     absolute magnetization    =     2.03 Bohr mag/cell

     iteration #  7     ecut=    40.00 Ry     beta= 0.70
     CG style diagonalization
     ethr =  1.00E-13,  avg # of iterations =  3.1

     negative rho (up, down):  4.801E-01 8.283E-03

     total cpu time spent up to now is     1266.4 secs

     total energy              =   -1940.16902987 Ry
     Harris-Foulkes estimate   =   -1940.16902988 Ry
     estimated scf accuracy    <          1.7E-11 Ry

     total magnetization       =     1.00 Bohr mag/cell
     absolute magnetization    =     2.03 Bohr mag/cell

     iteration #  8     ecut=    40.00 Ry     beta= 0.70
     CG style diagonalization
     ethr =  1.00E-13,  avg # of iterations =  3.0

     negative rho (up, down):  4.801E-01 8.282E-03

     total cpu time spent up to now is     1290.6 secs

     total energy              =   -1940.16902987 Ry
     Harris-Foulkes estimate   =   -1940.16902987 Ry
     estimated scf accuracy    <          5.0E-12 Ry

     total magnetization       =     1.00 Bohr mag/cell
     absolute magnetization    =     2.03 Bohr mag/cell

     iteration #  9     ecut=    40.00 Ry     beta= 0.70
     CG style diagonalization
     ethr =  1.00E-13,  avg # of iterations =  3.0

     negative rho (up, down):  4.801E-01 8.283E-03

     total cpu time spent up to now is     1314.7 secs

     total energy              =   -1940.16902987 Ry
     Harris-Foulkes estimate   =   -1940.16902987 Ry
     estimated scf accuracy    <          1.1E-12 Ry

     total magnetization       =     1.00 Bohr mag/cell
     absolute magnetization    =     2.03 Bohr mag/cell

     iteration # 10     ecut=    40.00 Ry     beta= 0.70
     CG style diagonalization
     ethr =  1.00E-13,  avg # of iterations =  3.0

     negative rho (up, down):  4.801E-01 8.283E-03
 
     Magnetic moment per site:
     atom:    1    charge:    0.8536    magn:    0.0000    constr:    0.0000
     atom:    2    charge:    0.8488    magn:    0.0011    constr:    0.0000
     atom:    3    charge:    0.8496    magn:   -0.0003    constr:    0.0000
     atom:    4    charge:    0.8516    magn:    0.0003    constr:    0.0000
     atom:    5    charge:    0.8543    magn:    0.0009    constr:    0.0000
     atom:    6    charge:    0.8526    magn:   -0.0001    constr:    0.0000
     atom:    7    charge:    0.8537    magn:    0.0013    constr:    0.0000
     atom:    8    charge:    0.8525    magn:    0.0007    constr:    0.0000
     atom:    9    charge:    0.8537    magn:    0.0009    constr:    0.0000
     atom:   10    charge:    0.8463    magn:    0.0023    constr:    0.0000
     atom:   11    charge:    0.8500    magn:   -0.0004    constr:    0.0000
     atom:   12    charge:    0.8550    magn:    0.0003    constr:    0.0000
     atom:   13    charge:    0.8543    magn:    0.0001    constr:    0.0000
     atom:   14    charge:    0.8526    magn:   -0.0001    constr:    0.0000
     atom:   15    charge:    0.8527    magn:    0.0012    constr:    0.0000
     atom:   16    charge:    0.8581    magn:    0.0047    constr:    0.0000
     atom:   17    charge:    0.8650    magn:    0.0107    constr:    0.0000
     atom:   18    charge:    0.8535    magn:    0.0027    constr:    0.0000
     atom:   19    charge:    0.8626    magn:    0.0049    constr:    0.0000
     atom:   20    charge:    0.8550    magn:    0.0003    constr:    0.0000
     atom:   21    charge:    0.8543    magn:    0.0009    constr:    0.0000
     atom:   22    charge:    0.8494    magn:    0.0001    constr:    0.0000
     atom:   23    charge:    0.8464    magn:   -0.0004    constr:    0.0000
     atom:   24    charge:    0.8431    magn:    0.0093    constr:    0.0000
     atom:   25    charge:    1.6230    magn:    0.2010    constr:    0.0000
     atom:   26    charge:    0.8535    magn:    0.0027    constr:    0.0000
     atom:   27    charge:    0.8500    magn:   -0.0004    constr:    0.0000
     atom:   28    charge:    0.8516    magn:    0.0003    constr:    0.0000
     atom:   29    charge:    0.8496    magn:    0.0008    constr:    0.0000
     atom:   30    charge:    0.8498    magn:    0.0009    constr:    0.0000
     atom:   31    charge:    0.8489    magn:    0.0053    constr:    0.0000
     atom:   32    charge:    0.8431    magn:    0.0093    constr:    0.0000
     atom:   33    charge:    0.8650    magn:    0.0107    constr:    0.0000
     atom:   34    charge:    0.8463    magn:    0.0023    constr:    0.0000
     atom:   35    charge:    0.8496    magn:   -0.0003    constr:    0.0000
     atom:   36    charge:    0.8488    magn:   -0.0003    constr:    0.0000
     atom:   37    charge:    0.8482    magn:    0.0004    constr:    0.0000
     atom:   38    charge:    0.8498    magn:    0.0009    constr:    0.0000
     atom:   39    charge:    0.8464    magn:   -0.0004    constr:    0.0000
     atom:   40    charge:    0.8581    magn:    0.0047    constr:    0.0000
     atom:   41    charge:    0.8537    magn:    0.0009    constr:    0.0000
     atom:   42    charge:    0.8488    magn:    0.0011    constr:    0.0000
     atom:   43    charge:    0.8488    magn:    0.0011    constr:    0.0000
     atom:   44    charge:    0.8488    magn:   -0.0003    constr:    0.0000
     atom:   45    charge:    0.8496    magn:    0.0008    constr:    0.0000
     atom:   46    charge:    0.8494    magn:    0.0001    constr:    0.0000
     atom:   47    charge:    0.8527    magn:    0.0012    constr:    0.0000
     atom:   48    charge:    0.8525    magn:    0.0007    constr:    0.0000
     atom:   49    charge:    0.8536    magn:    0.0000    constr:    0.0000
     atom:   50    charge:    2.6983    magn:   -0.0002    constr:    0.0000
     atom:   51    charge:    2.6968    magn:   -0.0003    constr:    0.0000
     atom:   52    charge:    2.6868    magn:    0.0022    constr:    0.0000
     atom:   53    charge:    2.6961    magn:    0.0038    constr:    0.0000
     atom:   54    charge:    2.6979    magn:   -0.0004    constr:    0.0000
     atom:   55    charge:    2.6902    magn:    0.0008    constr:    0.0000
     atom:   56    charge:    2.6928    magn:    0.0003    constr:    0.0000
     atom:   57    charge:    2.6935    magn:    0.0017    constr:    0.0000
     atom:   58    charge:    2.6939    magn:    0.0030    constr:    0.0000
     atom:   59    charge:    2.6847    magn:    0.0162    constr:    0.0000
     atom:   60    charge:    2.6865    magn:   -0.0169    constr:    0.0000
     atom:   61    charge:    2.6943    magn:    0.0140    constr:    0.0000
     atom:   62    charge:    2.6898    magn:    0.0099    constr:    0.0000
     atom:   63    charge:    2.6902    magn:    0.0008    constr:    0.0000
     atom:   64    charge:    2.6983    magn:    0.0000    constr:    0.0000
     atom:   65    charge:    2.6985    magn:    0.0045    constr:    0.0000
     atom:   66    charge:    2.6959    magn:   -0.0107    constr:    0.0000
     atom:   67    charge:    1.7367    magn:   -0.0776    constr:    0.0000
     atom:   68    charge:    2.6792    magn:    0.0963    constr:    0.0000
     atom:   69    charge:    2.6943    magn:    0.0140    constr:    0.0000
[...]
     atom:   55    charge:    2.6902    magn:    0.0008    constr:    0.0000
     atom:   56    charge:    2.6928    magn:    0.0003    constr:    0.0000
     atom:   57    charge:    2.6935    magn:    0.0017    constr:    0.0000
     atom:   58    charge:    2.6939    magn:    0.0030    constr:    0.0000
     atom:   59    charge:    2.6847    magn:    0.0162    constr:    0.0000
     atom:   60    charge:    2.6865    magn:   -0.0169    constr:    0.0000
     atom:   61    charge:    2.6943    magn:    0.0140    constr:    0.0000
     atom:   62    charge:    2.6898    magn:    0.0099    constr:    0.0000
     atom:   63    charge:    2.6902    magn:    0.0008    constr:    0.0000
     atom:   64    charge:    2.6983    magn:    0.0000    constr:    0.0000
     atom:   65    charge:    2.6985    magn:    0.0045    constr:    0.0000
     atom:   66    charge:    2.6959    magn:   -0.0107    constr:    0.0000
     atom:   67    charge:    1.7367    magn:   -0.0776    constr:    0.0000
     atom:   68    charge:    2.6792    magn:    0.0963    constr:    0.0000
     atom:   69    charge:    2.6943    magn:    0.0140    constr:    0.0000
     atom:   70    charge:    2.6979    magn:   -0.0004    constr:    0.0000
     atom:   71    charge:    2.6972    magn:    0.0004    constr:    0.0000
     atom:   72    charge:    2.6923    magn:   -0.0004    constr:    0.0000
     atom:   73    charge:    2.6870    magn:    0.0078    constr:    0.0000
     atom:   74    charge:    2.6578    magn:    0.0907    constr:    0.0000
     atom:   75    charge:    1.7367    magn:   -0.0776    constr:    0.0000
     atom:   76    charge:    2.6865    magn:   -0.0169    constr:    0.0000
     atom:   77    charge:    2.6961    magn:    0.0038    constr:    0.0000
     atom:   78    charge:    2.6959    magn:   -0.0002    constr:    0.0000
     atom:   79    charge:    2.6920    magn:   -0.0001    constr:    0.0000
     atom:   80    charge:    2.6873    magn:    0.0047    constr:    0.0000
     atom:   81    charge:    2.6870    magn:    0.0078    constr:    0.0000
     atom:   82    charge:    2.6959    magn:   -0.0107    constr:    0.0000
     atom:   83    charge:    2.6847    magn:    0.0162    constr:    0.0000
     atom:   84    charge:    2.6868    magn:    0.0022    constr:    0.0000
     atom:   85    charge:    2.6938    magn:   -0.0000    constr:    0.0000
     atom:   86    charge:    2.6932    magn:    0.0004    constr:    0.0000
     atom:   87    charge:    2.6920    magn:   -0.0001    constr:    0.0000
     atom:   88    charge:    2.6923    magn:   -0.0004    constr:    0.0000
     atom:   89    charge:    2.6985    magn:    0.0045    constr:    0.0000
     atom:   90    charge:    2.6939    magn:    0.0030    constr:    0.0000
     atom:   91    charge:    2.6968    magn:   -0.0003    constr:    0.0000
     atom:   92    charge:    2.6998    magn:    0.0005    constr:    0.0000
     atom:   93    charge:    2.6938    magn:   -0.0000    constr:    0.0000
     atom:   94    charge:    2.6959    magn:   -0.0002    constr:    0.0000
     atom:   95    charge:    2.6972    magn:    0.0004    constr:    0.0000
     atom:   96    charge:    2.6983    magn:    0.0000    constr:    0.0000
     atom:   97    charge:    2.6935    magn:    0.0017    constr:    0.0000
     atom:   98    charge:    2.6984    magn:   -0.0002    constr:    0.0000

     total cpu time spent up to now is     3353.4 secs

     End of self-consistent calculation

 ------ SPIN UP ------------


          k = 0.0000 0.0000 0.0000 ( 77467 PWs)   bands (ev):

   -21.8166 -21.6254 -21.4001 -21.3893 -21.3814 -21.3024 -21.2863 -20.8783
   -20.6647 -20.6554 -20.6237 -20.5514 -20.5476 -20.4312 -20.2972 -20.2926
   -20.2797 -20.1311 -20.1072 -19.5933 -19.4208 -19.4074 -19.4004 -19.3952
   -19.3842 -19.3750 -19.3701 -19.3320 -19.3042 -19.1786 -19.1664 -19.0405
   -18.9768 -18.9741 -18.9518 -18.7693 -18.7677 -18.5545 -18.5466 -18.5261
   -18.5232 -18.4751 -18.4262 -18.4045 -18.3708 -18.3465 -18.3455 -16.7290
   -14.7400 -13.1286 -12.7796 -12.7737 -12.7496 -12.7222 -12.7171 -12.6553
   -12.5685 -12.5342 -12.5255 -12.4789 -12.4114 -12.1536 -12.0710 -12.0621
   -12.0266 -11.9793 -11.9452 -11.5596 -11.4212 -11.4130 -11.3954 -11.3946
   -11.3722 -11.3697 -11.3616 -11.3167 -11.3004 -11.0764 -11.0469 -10.8760
   -10.7254 -10.7120 -10.6780 -10.6518 -10.5034 -10.0722 -10.0335 -10.0105
    -9.9376  -9.8782  -9.8181  -9.3997  -9.3376  -9.3218  -9.3139  -9.2917
    -9.2817  -9.2233  -9.0597  -8.9508  -8.9472  -8.9172  -8.9141  -8.9082
    -8.9020  -8.8900  -8.8819  -8.8641  -8.8359  -8.8307  -8.8273  -8.8262
    -8.8207  -8.7985  -8.7980  -8.7482  -8.7290  -8.7077  -8.6562  -8.6421
    -8.4699  -8.4531  -8.2227  -8.1928  -8.1924  -8.0926  -8.0855  -7.9885
    -7.8610  -7.8413  -7.8381  -7.7981  -7.7260  -7.7226  -7.5599  -7.5137
    -7.5042  -7.4776  -7.4756  -7.4559  -7.4432  -7.4077  -7.4039  -7.3567
    -7.3418  -7.3403  -7.3333  -7.2782  -7.2257  -7.2249  -7.1804  -7.0385
    -7.0306  -7.0004  -6.8934  -6.8148  -6.6531  -6.5346  -6.3016  -6.1958
    -6.1876  -6.1599  -6.0940  -6.0814  -6.0729  -6.0716  -6.0704  -6.0574
    -6.0510  -6.0477  -6.0318  -5.9751  -5.8695  -5.8151  -5.7976  -5.7010
    -5.5455  -5.4555  -5.4542  -5.4464  -5.3102  -5.2373  -5.1004  -5.0349
    -4.8038  -4.8029  -4.7815  -4.7637  -4.6804  -4.6711  -4.5747  -4.5223
    -4.5169  -4.5049  -4.3513  -3.0715  -0.0558   0.1760   0.6730   0.6759
     0.7064   0.7192   0.7260   0.7288   0.7765   0.7907   0.8042   0.8054
     0.8108   0.8260   0.8336   0.8521   0.8617   0.8916   0.9080   0.9336
     0.9606   1.1144   1.2116   1.2294   1.2327   1.2613   1.3107   1.3166
     1.3216   1.3263   1.3382   1.3578   1.3915   1.4353   1.4376   1.4409
     1.4495   1.4598   1.4834   1.8820   2.0569   2.0912   2.0945   2.1077
     2.1081   2.1268   2.1362   2.2090   2.2647

 ------ SPIN DOWN ----------


          k = 0.0000 0.0000 0.0000 ( 77467 PWs)   bands (ev):

   -21.7622 -21.5281 -21.3970 -21.3838 -21.3746 -21.2958 -21.2387 -20.8197
   -20.6576 -20.6372 -20.6230 -20.5470 -20.5319 -20.4148 -20.2891 -20.2865
   -20.2562 -20.1084 -20.0927 -19.5516 -19.4135 -19.4009 -19.3948 -19.3894
   -19.3796 -19.3727 -19.3578 -19.3111 -19.3018 -19.1607 -19.1563 -19.0306
   -18.9716 -18.9715 -18.9271 -18.7679 -18.7525 -18.5459 -18.5406 -18.5186
   -18.5063 -18.4691 -18.4155 -18.3972 -18.3683 -18.3402 -18.3291 -16.6064
   -14.8608 -13.0556 -12.7735 -12.7649 -12.7458 -12.7197 -12.7137 -12.6466
   -12.5624 -12.5276 -12.5204 -12.4688 -12.3993 -12.1421 -12.0622 -12.0529
   -12.0265 -11.9754 -11.9334 -11.5388 -11.4074 -11.4003 -11.3901 -11.3837
   -11.3690 -11.3575 -11.3572 -11.3066 -11.2888 -11.0830 -11.0341 -10.8571
   -10.7194 -10.7095 -10.6700 -10.6418 -10.4944 -10.0577 -10.0211  -9.9995
    -9.9269  -9.8731  -9.8117  -9.3872  -9.3108  -9.3032  -9.3011  -9.2882
    -9.2777  -9.2223  -9.0402  -8.9337  -8.9107  -8.9067  -8.9039  -8.8910
    -8.8848  -8.8763  -8.8558  -8.8431  -8.8280  -8.8256  -8.8232  -8.8099
    -8.8029  -8.7938  -8.7915  -8.7321  -8.7230  -8.6495  -8.6321  -8.5971
    -8.4688  -8.4507  -8.2200  -8.1913  -8.1900  -8.0826  -8.0744  -7.8612
    -7.8387  -7.8219  -7.7966  -7.7927  -7.7129  -7.6834  -7.5469  -7.5029
    -7.4958  -7.4740  -7.4538  -7.4416  -7.3999  -7.3996  -7.3838  -7.3364
    -7.3299  -7.3248  -7.2911  -7.2749  -7.2159  -7.1843  -7.1555  -7.0287
    -7.0277  -6.9960  -6.8820  -6.8076  -6.6569  -6.5451  -6.1895  -6.1820
    -6.1550  -6.1322  -6.0754  -6.0661  -6.0641  -6.0572  -6.0526  -6.0458
    -6.0372  -6.0209  -5.9822  -5.9591  -5.8240  -5.8197  -5.7880  -5.7111
    -5.4970  -5.4451  -5.4365  -5.4063  -5.2809  -5.2408  -5.1129  -5.0466
    -4.7804  -4.7703  -4.7460  -4.7449  -4.6675  -4.6560  -4.5523  -4.5127
    -4.4932  -4.4898  -4.1615  -3.3878   0.1845   0.4780   0.7060   0.7138
     0.7165   0.7331   0.7457   0.7527   0.7931   0.8054   0.8069   0.8080
     0.8142   0.8355   0.8538   0.8629   0.8804   0.9202   0.9401   0.9467
     1.0133   1.1688   1.2288   1.2559   1.2626   1.3112   1.3175   1.3177
     1.3225   1.3280   1.3460   1.3648   1.4186   1.4347   1.4368   1.4406
     1.4507   1.4607   1.4909   1.8885   2.0975   2.1021   2.1127   2.1233
     2.1416   2.1542   2.1914   2.2121   2.3256

     highest occupied, lowest unoccupied level (ev):    -4.3513   -4.1615

!    total energy              =   -1940.16902994 Ry
     Harris-Foulkes estimate   =   -1940.16902994 Ry
     estimated scf accuracy    <          5.7E-15 Ry

     total all-electron energy =     -7769.993507 Ry

     The total energy is the sum of the following terms:

     one-electron contribution =  -10644.28510488 Ry
     hartree contribution      =    5407.73220642 Ry
     xc contribution           =    -430.66250302 Ry
     ewald contribution        =    4370.49408766 Ry
     DFT-D3 Dispersion         =      -0.27013418 Ry
     one-center paw contrib.   =    -643.17758194 Ry

     total magnetization       =     1.00 Bohr mag/cell
     absolute magnetization    =     2.03 Bohr mag/cell

     convergence has been achieved in  30 iterations

     negative rho (up, down):  4.801E-01 8.282E-03

     Forces acting on atoms (cartesian axes, Ry/au):

     atom    1 type  1   force =     0.00000679   -0.00000713    0.00000000
     atom    2 type  1   force =     0.00000142   -0.00000742    0.00000000
     atom    3 type  1   force =    -0.00001095   -0.00000064    0.00000000
     atom    4 type  1   force =    -0.00001019    0.00001243    0.00000000
     atom    5 type  1   force =     0.00001008    0.00000859    0.00000000
     atom    6 type  1   force =     0.00001451   -0.00000064    0.00000000
     atom    7 type  1   force =     0.00000520   -0.00000347    0.00000000
     atom    8 type  1   force =     0.00000222   -0.00000376    0.00000000
     atom    9 type  1   force =     0.00000342    0.00000093    0.00000000
     atom   10 type  1   force =     0.00000162    0.00000151    0.00000000
     atom   11 type  1   force =     0.00000169    0.00000709    0.00000000
     atom   12 type  1   force =    -0.00000017    0.00000607    0.00000000
     atom   13 type  1   force =     0.00000999   -0.00000593    0.00000000
     atom   14 type  1   force =     0.00000767   -0.00001256    0.00000000
     atom   15 type  1   force =     0.00000001   -0.00000845    0.00000000
     atom   16 type  1   force =    -0.00000572    0.00000395    0.00000000
     atom   17 type  1   force =    -0.00000493    0.00000608    0.00000000
     atom   18 type  1   force =     0.00000320   -0.00000040    0.00000000
     atom   19 type  1   force =     0.00000379   -0.00000228    0.00000000
     atom   20 type  1   force =    -0.00000561   -0.00000287    0.00000000
     atom   21 type  1   force =    -0.00000243   -0.00001307    0.00000000
     atom   22 type  1   force =    -0.00000361   -0.00000755    0.00000000
     atom   23 type  1   force =     0.00000271   -0.00000387    0.00000000
     atom   24 type  1   force =    -0.00001192    0.00000328    0.00000000
     atom   25 type  4   force =    -0.00000447    0.00000298    0.00000000
     atom   26 type  1   force =     0.00000169   -0.00000270    0.00000000
     atom   27 type  1   force =    -0.00000542   -0.00000489    0.00000000
     atom   28 type  1   force =    -0.00001594    0.00000280    0.00000000
     atom   29 type  1   force =    -0.00000723    0.00001026    0.00000000
     atom   30 type  1   force =     0.00001089   -0.00000593    0.00000000
     atom   31 type  1   force =     0.00000303   -0.00000195    0.00000000
     atom   32 type  1   force =    -0.00000886    0.00000851    0.00000000
     atom   33 type  1   force =    -0.00000754    0.00000156    0.00000000
     atom   34 type  1   force =    -0.00000029   -0.00000180    0.00000000
     atom   35 type  1   force =    -0.00000471    0.00001010    0.00000000
     atom   36 type  1   force =    -0.00000212    0.00001055    0.00000000
     atom   37 type  1   force =    -0.00000300    0.00000171    0.00000000
     atom   38 type  1   force =     0.00001056   -0.00000647    0.00000000
     atom   39 type  1   force =     0.00000480   -0.00000031    0.00000000
     atom   40 type  1   force =    -0.00000595    0.00000335    0.00000000
     atom   41 type  1   force =     0.00000124   -0.00000297    0.00000000
     atom   42 type  1   force =     0.00000752    0.00000251    0.00000000
     atom   43 type  1   force =     0.00000761   -0.00000457    0.00000000
     atom   44 type  1   force =    -0.00001036   -0.00000341    0.00000000
     atom   45 type  1   force =    -0.00001251    0.00000122    0.00000000
     atom   46 type  1   force =     0.00000480    0.00000709    0.00000000
     atom   47 type  1   force =     0.00000755    0.00000446    0.00000000
     atom   48 type  1   force =     0.00000459    0.00000012    0.00000000
     atom   49 type  1   force =     0.00000953   -0.00000272    0.00000000
     atom   50 type  2   force =     0.00000266   -0.00000381    0.00000000
     atom   51 type  2   force =    -0.00000835   -0.00000162    0.00000000
     atom   52 type  2   force =    -0.00001201   -0.00000578    0.00000000
     atom   53 type  2   force =     0.00000119   -0.00001303    0.00000000
     atom   54 type  2   force =     0.00000067   -0.00001091    0.00000000
     atom   55 type  2   force =    -0.00000685    0.00000315    0.00000000
     atom   56 type  2   force =    -0.00000200    0.00000146    0.00000000
     atom   57 type  2   force =    -0.00000098   -0.00000167    0.00000000
     atom   58 type  2   force =    -0.00000143   -0.00000825    0.00000000
     atom   59 type  2   force =    -0.00001520   -0.00000522    0.00000000
     atom   60 type  2   force =    -0.00001135   -0.00000721    0.00000000
     atom   61 type  2   force =     0.00000702   -0.00001196    0.00000000
     atom   62 type  2   force =     0.00000644   -0.00000361    0.00000000
     atom   63 type  2   force =    -0.00000615    0.00000457    0.00000000
     atom   64 type  2   force =    -0.00000440    0.00000540    0.00000000
     atom   65 type  2   force =     0.00000311   -0.00000306    0.00000000
     atom   66 type  2   force =    -0.00000197   -0.00000523    0.00000000
     atom   67 type  3   force =    -0.00001043   -0.00000052    0.00000000
     atom   68 type  2   force =    -0.00000144    0.00000110    0.00000000
     atom   69 type  2   force =     0.00001412    0.00000001    0.00000000
     atom   70 type  2   force =     0.00000984    0.00000479    0.00000000
     atom   71 type  2   force =     0.00000437    0.00000036    0.00000000
     atom   72 type  2   force =    -0.00000326    0.00000239    0.00000000
     atom   73 type  2   force =     0.00000321   -0.00000155    0.00000000
     atom   74 type  2   force =    -0.00000473    0.00000285    0.00000000
     atom   75 type  5   force =    -0.00000477    0.00000876    0.00000000
     atom   76 type  2   force =     0.00000045    0.00001334    0.00000000
     atom   77 type  2   force =     0.00001188    0.00000517    0.00000000
     atom   78 type  2   force =     0.00000643   -0.00000481    0.00000000
     atom   79 type  2   force =    -0.00000041   -0.00000101    0.00000000
     atom   80 type  2   force =    -0.00000457    0.00000268    0.00000000
     atom   81 type  2   force =     0.00000293   -0.00000182    0.00000000
     atom   82 type  2   force =     0.00000330    0.00000422    0.00000000
     atom   83 type  2   force =    -0.00000339    0.00001525    0.00000000
     atom   84 type  2   force =    -0.00000137    0.00001292    0.00000000
     atom   85 type  2   force =     0.00000177    0.00000135    0.00000000
     atom   86 type  2   force =     0.00000848   -0.00000477    0.00000000
     atom   87 type  2   force =     0.00000074    0.00000087    0.00000000
     atom   88 type  2   force =    -0.00000378    0.00000155    0.00000000
     atom   89 type  2   force =     0.00000392   -0.00000145    0.00000000
     atom   90 type  2   force =     0.00000615    0.00000487    0.00000000
     atom   91 type  2   force =    -0.00000295    0.00000793    0.00000000
     atom   92 type  2   force =     0.00000088   -0.00000008    0.00000000
     atom   93 type  2   force =    -0.00000006   -0.00000206    0.00000000
     atom   94 type  2   force =     0.00000735   -0.00000330    0.00000000
     atom   95 type  2   force =     0.00000179   -0.00000413    0.00000000
     atom   96 type  2   force =    -0.00000688    0.00000091    0.00000000
     atom   97 type  2   force =     0.00000098    0.00000159    0.00000000
     atom   98 type  2   force =     0.00000490   -0.00000003    0.00000000

     Total force =     0.000087     Total SCF correction =     0.000000


     Computing stress (Cartesian axis) and pressure


     negative rho (up, down):  4.801E-01 8.282E-03
          total   stress  (Ry/bohr**3)                   (kbar)     P=   -0.17
  -0.00000002   0.00000000   0.00000000         -0.00      0.00      0.00
   0.00000000  -0.00000002   0.00000000          0.00     -0.00      0.00
   0.00000000   0.00000000  -0.00000333          0.00      0.00     -0.49


     Writing output data file C2Cn.save/
 
     init_run     :      8.65s CPU      9.07s WALL (       2 calls)
     electrons    :   3233.78s CPU   3268.39s WALL (       5 calls)
     update_pot   :      8.91s CPU      8.97s WALL (       3 calls)
     forces       :     16.68s CPU     17.32s WALL (       5 calls)
     stress       :     57.27s CPU     57.77s WALL (       5 calls)

     Called by init_run:
     wfcinit      :      3.49s CPU      3.71s WALL (       2 calls)
     potinit      :      1.83s CPU      1.87s WALL (       2 calls)
     hinit0       :      2.49s CPU      2.53s WALL (       2 calls)

     Called by electrons:
     c_bands      :   3136.17s CPU   3164.90s WALL (      96 calls)
     sum_band     :     52.34s CPU     54.59s WALL (      96 calls)
     v_of_rho     :     16.48s CPU     17.03s WALL (      98 calls)
     newd         :      5.76s CPU      7.34s WALL (      98 calls)
     PAW_pot      :     17.71s CPU     17.94s WALL (     101 calls)
     mix_rho      :      1.68s CPU      1.91s WALL (      96 calls)

     Called by c_bands:
     init_us_2    :      3.54s CPU      3.65s WALL (     414 calls)
     rcgdiagg     :   3039.11s CPU   3064.44s WALL (     205 calls)
     wfcrot       :     97.43s CPU     99.43s WALL (     193 calls)

     Called by sum_band:
     sum_band:bec :      0.12s CPU      0.12s WALL (     198 calls)
     addusdens    :      6.27s CPU      7.84s WALL (      96 calls)

     Called by *cgdiagg:
     h_psi        :   1550.06s CPU   1563.41s WALL (  135184 calls)
     s_psi        :    913.70s CPU    921.60s WALL (  270175 calls)
     rdiaghg      :      2.93s CPU      3.02s WALL (     193 calls)

     Called by h_psi:
     h_psi:pot    :   1548.47s CPU   1561.78s WALL (  135184 calls)
     h_psi:calbec :    556.72s CPU    561.37s WALL (  135184 calls)
     vloc_psi     :    525.13s CPU    530.79s WALL (  135184 calls)
     add_vuspsi   :    465.20s CPU    468.65s WALL (  135184 calls)
     hs_1psi      :   1922.83s CPU   1938.56s WALL (  134991 calls)
     s_1psi       :    941.82s CPU    949.57s WALL (  134991 calls)

     General routines
     calbec       :   1046.24s CPU   1055.91s WALL (  270423 calls)
     fft          :     12.75s CPU     12.94s WALL (    1830 calls)
     ffts         :      0.70s CPU      0.71s WALL (     192 calls)
     fftw         :    497.55s CPU    502.98s WALL (  341660 calls)
 
     Parallel routines
     fft_scatt_xy :     48.65s CPU     49.12s WALL (  343682 calls)
     fft_scatt_yz :    150.11s CPU    151.94s WALL (  343682 calls)
 
     PWSCF        :  55m29.57s CPU  56m 9.84s WALL

 
   This run was terminated on:  11:28:55   2Jul2021            

=------------------------------------------------------------------------------=
   JOB DONE.
=------------------------------------------------------------------------------=
