
     Program PWSCF v.6.4.1 starts on  1Jul2021 at 21:36:30 

     This program is part of the open-source Quantum ESPRESSO suite
     for quantum simulation of materials; please cite
         "P. Giannozzi et al., J. Phys.:Condens. Matter 21 395502 (2009);
         "P. Giannozzi et al., J. Phys.:Condens. Matter 29 465901 (2017);
          URL http://www.quantum-espresso.org", 
     in publications or presentations arising from this work. More details at
     http://www.quantum-espresso.org/quote

     Parallel version (MPI), running on    64 processors

     MPI processes distributed on     2 nodes
     R & G space division:  proc/nbgrp/npool/nimage =      64
     Waiting for input...
     Reading input from standard input

     Current dimensions of program PWSCF are:
     Max number of different atomic species (ntypx) = 10
     Max number of k-points (npk) =  40000
     Max angular momentum in pseudopotentials (lmaxx) =  3
               file N.pbe-n-kjpaw_psl.1.0.0.UPF: wavefunction(s)  2S renormalized
               file C.pbe-n-kjpaw_psl.1.0.0.UPF: wavefunction(s)  2S 2P renormalized
               file C.pbe-n-kjpaw_psl.1.0.0.UPF: wavefunction(s)  2S 2P renormalized
               file C.pbe-n-kjpaw_psl.1.0.0.UPF: wavefunction(s)  2S 2P renormalized

     --------------------------------------------
     Parameters for DFT-D3 Dispersion Correction:
     --------------------------------------------
       Reference C6 values for interpolation: 

         atom   Coordination number   C6
         B          0.000           214.36
         B          0.971           150.74
         B          1.944           106.23
         B          2.913            62.89
         B          4.586            56.06
         C1         0.000            98.23
         C1         0.987            86.49
         C1         1.998            58.72
         C1         2.999            51.56
         C1         3.984            36.41
         C2         0.000            98.23
         C2         0.987            86.49
         C2         1.998            58.72
         C2         2.999            51.56
         C2         3.984            36.41
         C3         0.000            98.23
         C3         0.987            86.49
         C3         1.998            58.72
         C3         2.999            51.56
         C3         3.984            36.41
         N          0.000            50.54
         N          0.994            44.25
         N          2.014            39.35
         N          2.990            31.16

       Values used:

         atom   Coordination number  R0_AB[au]  C6      C8
         B          3.326            3.039     62.90   2506.22
         B          3.317            3.039     62.90   2506.43
         B          3.318            3.039     62.90   2506.42
         B          3.323            3.039     62.90   2506.29
         B          3.325            3.039     62.90   2506.26
         B          3.323            3.039     62.90   2506.30
         B          3.326            3.039     62.90   2506.24
         B          3.323            3.039     62.90   2506.30
         B          3.322            3.039     62.90   2506.32
         B          3.307            3.039     62.91   2506.67
         B          3.318            3.039     62.90   2506.42
         B          3.324            3.039     62.90   2506.27
         B          3.322            3.039     62.90   2506.31
         B          3.323            3.039     62.90   2506.30
         B          3.323            3.039     62.90   2506.30
         B          3.324            3.039     62.90   2506.27
         B          3.294            3.039     62.92   2506.96
         B          3.279            3.039     62.92   2507.28
         B          3.319            3.039     62.90   2506.40
         B          3.324            3.039     62.90   2506.27
         B          3.325            3.039     62.90   2506.26
         B          3.322            3.039     62.90   2506.33
         B          3.317            3.039     62.90   2506.44
         B          3.306            3.039     62.91   2506.69
         C2         3.239            2.750     49.57   1433.64
         B          3.279            3.039     62.92   2507.28
         B          3.318            3.039     62.90   2506.42
         B          3.323            3.039     62.90   2506.29
         B          3.319            3.039     62.90   2506.38
         B          3.316            3.039     62.90   2506.45
         B          3.308            3.039     62.91   2506.65
         B          3.306            3.039     62.91   2506.69
         B          3.294            3.039     62.92   2506.96
         B          3.307            3.039     62.91   2506.67
         B          3.318            3.039     62.90   2506.42
         B          3.316            3.039     62.90   2506.46
         B          3.316            3.039     62.90   2506.46
         B          3.316            3.039     62.90   2506.45
         B          3.317            3.039     62.90   2506.44
         B          3.324            3.039     62.90   2506.27
         B          3.322            3.039     62.90   2506.32
         B          3.317            3.039     62.90   2506.43
         B          3.319            3.039     62.90   2506.39
         B          3.316            3.039     62.90   2506.46
         B          3.319            3.039     62.90   2506.38
         B          3.322            3.039     62.90   2506.33
         B          3.323            3.039     62.90   2506.30
         B          3.323            3.039     62.90   2506.30
         B          3.326            3.039     62.90   2506.22
         N          3.129            2.478     31.22    688.74
         N          3.129            2.478     31.22    688.75
         N          3.126            2.478     31.22    688.78
         N          3.128            2.478     31.22    688.76
         N          3.129            2.478     31.22    688.74
         N          3.128            2.478     31.22    688.75
         N          3.128            2.478     31.22    688.75
         N          3.128            2.478     31.22    688.76
         N          3.129            2.478     31.22    688.75
         N          3.125            2.478     31.22    688.78
         N          3.123            2.478     31.22    688.80
         N          3.129            2.478     31.22    688.74
         N          3.128            2.478     31.22    688.75
         N          3.128            2.478     31.22    688.75
         N          3.129            2.478     31.22    688.75
         N          3.129            2.478     31.22    688.75
         N          3.130            2.478     31.22    688.74
         C1         3.176            2.750     50.30   1454.85
         N          3.126            2.478     31.22    688.77
         N          3.129            2.478     31.22    688.74
         N          3.129            2.478     31.22    688.74
         N          3.128            2.478     31.22    688.75
         N          3.126            2.478     31.22    688.77
         N          3.123            2.478     31.22    688.80
         N          3.144            2.478     31.21    688.61
         C3         3.176            2.750     50.30   1454.85
         N          3.123            2.478     31.22    688.80
         N          3.128            2.478     31.22    688.76
         N          3.127            2.478     31.22    688.77
         N          3.126            2.478     31.22    688.77
         N          3.125            2.478     31.22    688.78
         N          3.123            2.478     31.22    688.80
         N          3.130            2.478     31.22    688.74
         N          3.125            2.478     31.22    688.78
         N          3.126            2.478     31.22    688.78
         N          3.127            2.478     31.22    688.77
         N          3.126            2.478     31.22    688.78
         N          3.126            2.478     31.22    688.77
         N          3.126            2.478     31.22    688.77
         N          3.129            2.478     31.22    688.75
         N          3.129            2.478     31.22    688.75
         N          3.129            2.478     31.22    688.75
         N          3.129            2.478     31.22    688.74
         N          3.127            2.478     31.22    688.77
         N          3.127            2.478     31.22    688.77
         N          3.128            2.478     31.22    688.75
         N          3.129            2.478     31.22    688.75
         N          3.128            2.478     31.22    688.76
         N          3.129            2.478     31.22    688.74

         Molecular C6 ( Ry / a.u.^6 ) =    437749.87


     gamma-point specific algorithms are used

     Subspace diagonalization in iterative solution of the eigenvalue problem:
     one sub-group per band group will be used
     scalapack distributed-memory algorithm (size of sub-group:  5*  5 procs)

     Message from routine setup:
     DEPRECATED: symmetry with ibrav=0, use correct ibrav instead
 
     Parallelization info
     --------------------
     sticks:   dense  smooth     PW     G-vecs:    dense   smooth      PW
     Min         189     189     46                19338    19338    2406
     Max         192     192     48                19354    19354    2428
     Sum       12173   12173   3053              1238193  1238193  154941
 


     bravais-lattice index     =            0
     lattice parameter (alat)  =      33.2346  a.u.
     unit-cell volume          =   36234.5559 (a.u.)^3
     number of atoms/cell      =           98
     number of atomic types    =            5
     number of electrons       =       391.00
     number of Kohn-Sham states=          245
     kinetic-energy cutoff     =      40.0000  Ry
     charge density cutoff     =     160.0000  Ry
     convergence threshold     =      1.0E-10
     mixing beta               =       0.7000
     number of iterations used =            8  plain     mixing
     Exchange-correlation      = SLA PW PBX PBC ( 1  4  3  4 0 0)
     Using LIBXC version       =    4   3   4
     nstep                     =           50


     celldm(1)=  33.234611  celldm(2)=   0.000000  celldm(3)=   0.000000
     celldm(4)=   0.000000  celldm(5)=   0.000000  celldm(6)=   0.000000

     crystal axes: (cart. coord. in units of alat)
               a(1) = (   1.001034   0.000169   0.000000 )  
               a(2) = (  -0.500370   0.867005   0.000000 )  
               a(3) = (   0.000000   0.000000   1.137204 )  

     reciprocal axes: (cart. coord. in units 2 pi/alat)
               b(1) = (  0.998870  0.576472  0.000000 )  
               b(2) = ( -0.000195  1.153283  0.000000 )  
               b(3) = (  0.000000  0.000000  0.879350 )  


     PseudoPot. # 1 for B  read from file:
     ./pseudo/B.pbe-n-kjpaw_psl.1.0.0.UPF
     MD5 check sum: 8c825a5969375aca5c2c6ad5945b3059
     Pseudo is Projector augmented-wave + core cor, Zval =  3.0
     Generated using "atomic" code by A. Dal Corso v.6.3
     Shape of augmentation charge: PSQ
     Using radial grid of 1059 points,  4 beta functions with: 
                l(1) =   0
                l(2) =   0
                l(3) =   1
                l(4) =   1
     Q(r) pseudized with 0 coefficients 


     PseudoPot. # 2 for N  read from file:
     ./pseudo/N.pbe-n-kjpaw_psl.1.0.0.UPF
     MD5 check sum: 14c48229446f9f2d411169a3abcbc3fa
     Pseudo is Projector augmented-wave + core cor, Zval =  5.0
     Generated using "atomic" code by A. Dal Corso v.6.3
     Shape of augmentation charge: PSQ
     Using radial grid of 1085 points,  4 beta functions with: 
                l(1) =   0
                l(2) =   0
                l(3) =   1
                l(4) =   1
     Q(r) pseudized with 0 coefficients 


     PseudoPot. # 3 for C  read from file:
     ./pseudo/C.pbe-n-kjpaw_psl.1.0.0.UPF
     MD5 check sum: 5f16ad9a65e90284d1d834d4ab3b0f7d
     Pseudo is Projector augmented-wave + core cor, Zval =  4.0
     Generated using "atomic" code by A. Dal Corso v.6.3
     Shape of augmentation charge: PSQ
     Using radial grid of 1073 points,  4 beta functions with: 
                l(1) =   0
                l(2) =   0
                l(3) =   1
                l(4) =   1
     Q(r) pseudized with 0 coefficients 


     PseudoPot. # 4 for C  read from file:
     ./pseudo/C.pbe-n-kjpaw_psl.1.0.0.UPF
     MD5 check sum: 5f16ad9a65e90284d1d834d4ab3b0f7d
     Pseudo is Projector augmented-wave + core cor, Zval =  4.0
     Generated using "atomic" code by A. Dal Corso v.6.3
     Shape of augmentation charge: PSQ
     Using radial grid of 1073 points,  4 beta functions with: 
                l(1) =   0
                l(2) =   0
                l(3) =   1
                l(4) =   1
     Q(r) pseudized with 0 coefficients 


     PseudoPot. # 5 for C  read from file:
     ./pseudo/C.pbe-n-kjpaw_psl.1.0.0.UPF
     MD5 check sum: 5f16ad9a65e90284d1d834d4ab3b0f7d
     Pseudo is Projector augmented-wave + core cor, Zval =  4.0
     Generated using "atomic" code by A. Dal Corso v.6.3
     Shape of augmentation charge: PSQ
     Using radial grid of 1073 points,  4 beta functions with: 
                l(1) =   0
                l(2) =   0
                l(3) =   1
                l(4) =   1
     Q(r) pseudized with 0 coefficients 


     atomic species   valence    mass     pseudopotential
        B              3.00    10.00000     B ( 1.00)
        N              5.00    14.00000     N ( 1.00)
        C1             4.00    12.00000     C ( 1.00)
        C2             4.00    12.00000     C ( 1.00)
        C3             4.00    12.00000     C ( 1.00)

     Starting magnetic structure 
     atomic species   magnetization
        B            0.000
        N            0.000
        C1           1.000
        C2           0.000
        C3           0.000

      2 Sym. Ops. (no inversion) found



   Cartesian axes

     site n.     atom                  positions (alat units)
         1           B   tau(   1) = (  -0.0000623   0.0821138   0.5686018  )
         2           B   tau(   2) = (  -0.0715884   0.2061210   0.5686018  )
         3           B   tau(   3) = (  -0.1432627   0.3302279   0.5686018  )
         4           B   tau(   4) = (  -0.2148397   0.4541212   0.5686018  )
         5           B   tau(   5) = (  -0.2858969   0.5779999   0.5686018  )
         6           B   tau(   6) = (  -0.3571927   0.7019745   0.5686018  )
         7           B   tau(   7) = (  -0.4287749   0.8256698   0.5686018  )
         8           B   tau(   8) = (   0.1428962   0.0818479   0.5686018  )
         9           B   tau(   9) = (   0.0710545   0.2051061   0.5686018  )
        10           B   tau(  10) = (  -0.0002709   0.3301011   0.5686018  )
        11           B   tau(  11) = (  -0.0723630   0.4540409   0.5686018  )
        12           B   tau(  12) = (  -0.1438099   0.5781445   0.5686018  )
        13           B   tau(  13) = (  -0.2146030   0.7020175   0.5686018  )
        14           B   tau(  14) = (  -0.2858606   0.8255254   0.5686018  )
        15           B   tau(  15) = (   0.2863409   0.0818625   0.5686018  )
        16           B   tau(  16) = (   0.2149345   0.2047844   0.5686018  )
        17           B   tau(  17) = (   0.1430630   0.3272014   0.5686018  )
        18           B   tau(  18) = (   0.0699835   0.4551860   0.5686018  )
        19           B   tau(  19) = (  -0.0020530   0.5793017   0.5686018  )
        20           B   tau(  20) = (  -0.0719293   0.7026455   0.5686018  )
        21           B   tau(  21) = (  -0.1428475   0.8257687   0.5686018  )
        22           B   tau(  22) = (   0.4291389   0.0825592   0.5686018  )
        23           B   tau(  23) = (   0.3576228   0.2061787   0.5686018  )
        24           B   tau(  24) = (   0.2855252   0.3294313   0.5686018  )
        25           C2  tau(  25) = (   0.2163865   0.4531857   0.5686018  )
        26           B   tau(  26) = (   0.1414526   0.5789742   0.5686018  )
        27           B   tau(  27) = (   0.0712711   0.7028225   0.5686018  )
        28           B   tau(  28) = (  -0.0000368   0.8261707   0.5686018  )
        29           B   tau(  29) = (   0.5719514   0.0827115   0.5686018  )
        30           B   tau(  30) = (   0.5005627   0.2064511   0.5686018  )
        31           B   tau(  31) = (   0.4291111   0.3303690   0.5686018  )
        32           B   tau(  32) = (   0.3581303   0.4551869   0.5686018  )
        33           B   tau(  33) = (   0.2888303   0.5796778   0.5686018  )
        34           B   tau(  34) = (   0.2146522   0.7023587   0.5686018  )
        35           B   tau(  35) = (   0.1430464   0.8261299   0.5686018  )
        36           B   tau(  36) = (   0.7149743   0.0827582   0.5686018  )
        37           B   tau(  37) = (   0.6434561   0.2066169   0.5686018  )
        38           B   tau(  38) = (   0.5721530   0.3304491   0.5686018  )
        39           B   tau(  39) = (   0.5009190   0.4543749   0.5686018  )
        40           B   tau(  40) = (   0.4307823   0.5786437   0.5686018  )
        41           B   tau(  41) = (   0.3585637   0.7030867   0.5686018  )
        42           B   tau(  42) = (   0.2863633   0.8261115   0.5686018  )
        43           B   tau(  43) = (   0.8581424   0.0826678   0.5686018  )
        44           B   tau(  44) = (   0.7864800   0.2066097   0.5686018  )
        45           B   tau(  45) = (   0.7150090   0.3304945   0.5686018  )
        46           B   tau(  46) = (   0.6437347   0.4542498   0.5686018  )
        47           B   tau(  47) = (   0.5729390   0.5782649   0.5686018  )
        48           B   tau(  48) = (   0.5012293   0.7024990   0.5686018  )
        49           B   tau(  49) = (   0.4295197   0.8261718   0.5686018  )
        50           N   tau(  50) = (   0.0714288   0.0409569   0.5686018  )
        51           N   tau(  51) = (  -0.0003678   0.1644060   0.5686018  )
        52           N   tau(  52) = (  -0.0717426   0.2888204   0.5686018  )
        53           N   tau(  53) = (  -0.1435636   0.4127588   0.5686018  )
        54           N   tau(  54) = (  -0.2148634   0.5366396   0.5686018  )
        55           N   tau(  55) = (  -0.2858660   0.6605946   0.5686018  )
        56           N   tau(  56) = (  -0.3573003   0.7844038   0.5686018  )
        57           N   tau(  57) = (   0.2146116   0.0408779   0.5686018  )
        58           N   tau(  58) = (   0.1428642   0.1641289   0.5686018  )
        59           N   tau(  59) = (   0.0708916   0.2874341   0.5686018  )
        60           N   tau(  60) = (  -0.0010331   0.4129093   0.5686018  )
        61           N   tau(  61) = (  -0.0728037   0.5369334   0.5686018  )
        62           N   tau(  62) = (  -0.1432342   0.6608128   0.5686018  )
        63           N   tau(  63) = (  -0.2143612   0.7844446   0.5686018  )
        64           N   tau(  64) = (   0.3577993   0.0411042   0.5686018  )
        65           N   tau(  65) = (   0.2866079   0.1641777   0.5686018  )
        66           N   tau(  66) = (   0.2151013   0.2864893   0.5686018  )
        67           C1  tau(  67) = (   0.1450384   0.4127592   0.5686018  )
        68           N   tau(  68) = (   0.0685462   0.5385413   0.5686018  )
        69           N   tau(  69) = (  -0.0007363   0.6617578   0.5686018  )
        70           N   tau(  70) = (  -0.0715117   0.7849321   0.5686018  )
        71           N   tau(  71) = (   0.5005287   0.0415386   0.5686018  )
        72           N   tau(  72) = (   0.4291334   0.1651964   0.5686018  )
        73           N   tau(  73) = (   0.3573858   0.2891812   0.5686018  )
        74           N   tau(  74) = (   0.2853916   0.4133455   0.5686018  )
        75           C3  tau(  75) = (   0.2157228   0.5351881   0.5686018  )
        76           N   tau(  76) = (   0.1425570   0.6616147   0.5686018  )
        77           N   tau(  77) = (   0.0714221   0.7851250   0.5686018  )
        78           N   tau(  78) = (   0.6434480   0.0415947   0.5686018  )
        79           N   tau(  79) = (   0.5719848   0.1652990   0.5686018  )
        80           N   tau(  80) = (   0.5004576   0.2891771   0.5686018  )
        81           N   tau(  81) = (   0.4289181   0.4130789   0.5686018  )
        82           N   tau(  82) = (   0.3601071   0.5376468   0.5686018  )
        83           N   tau(  83) = (   0.2871841   0.6620637   0.5686018  )
        84           N   tau(  84) = (   0.2146664   0.7848954   0.5686018  )
        85           N   tau(  85) = (   0.7865436   0.0415632   0.5686018  )
        86           N   tau(  86) = (   0.7149558   0.1653366   0.5686018  )
        87           N   tau(  87) = (   0.6435028   0.2891718   0.5686018  )
        88           N   tau(  88) = (   0.5721660   0.4129360   0.5686018  )
        89           N   tau(  89) = (   0.5017855   0.5368761   0.5686018  )
        90           N   tau(  90) = (   0.4299558   0.6613862   0.5686018  )
        91           N   tau(  91) = (   0.3580999   0.7852902   0.5686018  )
        92           N   tau(  92) = (   0.9295601   0.0414347   0.5686018  )
        93           N   tau(  93) = (   0.8579406   0.1652264   0.5686018  )
        94           N   tau(  94) = (   0.7863655   0.2891350   0.5686018  )
        95           N   tau(  95) = (   0.7149544   0.4129348   0.5686018  )
        96           N   tau(  96) = (   0.6439659   0.5367593   0.5686018  )
        97           N   tau(  97) = (   0.5725681   0.6608766   0.5686018  )
        98           N   tau(  98) = (   0.5009082   0.7848371   0.5686018  )

     number of k points=     1
                       cart. coord. in units 2pi/alat
        k(    1) = (   0.0000000   0.0000000   0.0000000), wk =   1.0000000

     Dense  grid:   619097 G-vectors     FFT dimensions: ( 135, 135, 160)

     Occupations read from input 

      Spin-up

        1.0000   1.0000   1.0000   1.0000   1.0000   1.0000   1.0000   1.0000
        1.0000   1.0000   1.0000   1.0000   1.0000   1.0000   1.0000   1.0000
        1.0000   1.0000   1.0000   1.0000   1.0000   1.0000   1.0000   1.0000
        1.0000   1.0000   1.0000   1.0000   1.0000   1.0000   1.0000   1.0000
        1.0000   1.0000   1.0000   1.0000   1.0000   1.0000   1.0000   1.0000
        1.0000   1.0000   1.0000   1.0000   1.0000   1.0000   1.0000   1.0000
        1.0000   1.0000   1.0000   1.0000   1.0000   1.0000   1.0000   1.0000
        1.0000   1.0000   1.0000   1.0000   1.0000   1.0000   1.0000   1.0000
        1.0000   1.0000   1.0000   1.0000   1.0000   1.0000   1.0000   1.0000
        1.0000   1.0000   1.0000   1.0000   1.0000   1.0000   1.0000   1.0000
        1.0000   1.0000   1.0000   1.0000   1.0000   1.0000   1.0000   1.0000
        1.0000   1.0000   1.0000   1.0000   1.0000   1.0000   1.0000   1.0000
        1.0000   1.0000   1.0000   1.0000   1.0000   1.0000   1.0000   1.0000
        1.0000   1.0000   1.0000   1.0000   1.0000   1.0000   1.0000   1.0000
        1.0000   1.0000   1.0000   1.0000   1.0000   1.0000   1.0000   1.0000
        1.0000   1.0000   1.0000   1.0000   1.0000   1.0000   1.0000   1.0000
        1.0000   1.0000   1.0000   1.0000   1.0000   1.0000   1.0000   1.0000
        1.0000   1.0000   1.0000   1.0000   1.0000   1.0000   1.0000   1.0000
        1.0000   1.0000   1.0000   1.0000   1.0000   1.0000   1.0000   1.0000
        1.0000   1.0000   1.0000   1.0000   1.0000   1.0000   1.0000   1.0000
        1.0000   1.0000   1.0000   1.0000   1.0000   1.0000   1.0000   1.0000
        1.0000   1.0000   1.0000   1.0000   1.0000   1.0000   1.0000   1.0000
        1.0000   1.0000   1.0000   1.0000   1.0000   1.0000   1.0000   1.0000
        1.0000   1.0000   1.0000   1.0000   1.0000   1.0000   1.0000   1.0000
        1.0000   1.0000   1.0000   0.0000   1.0000   0.0000   0.0000   0.0000
        0.0000   0.0000   0.0000   0.0000   0.0000   0.0000   0.0000   0.0000
        0.0000   0.0000   0.0000   0.0000   0.0000   0.0000   0.0000   0.0000
        0.0000   0.0000   0.0000   0.0000   0.0000   0.0000   0.0000   0.0000
        0.0000   0.0000   0.0000   0.0000   0.0000   0.0000   0.0000   0.0000
        0.0000   0.0000   0.0000   0.0000   0.0000   0.0000   0.0000   0.0000
        0.0000   0.0000   0.0000   0.0000   0.0000

      Spin-down

        1.0000   1.0000   1.0000   1.0000   1.0000   1.0000   1.0000   1.0000
        1.0000   1.0000   1.0000   1.0000   1.0000   1.0000   1.0000   1.0000
        1.0000   1.0000   1.0000   1.0000   1.0000   1.0000   1.0000   1.0000
        1.0000   1.0000   1.0000   1.0000   1.0000   1.0000   1.0000   1.0000
        1.0000   1.0000   1.0000   1.0000   1.0000   1.0000   1.0000   1.0000
        1.0000   1.0000   1.0000   1.0000   1.0000   1.0000   1.0000   1.0000
        1.0000   1.0000   1.0000   1.0000   1.0000   1.0000   1.0000   1.0000
        1.0000   1.0000   1.0000   1.0000   1.0000   1.0000   1.0000   1.0000
        1.0000   1.0000   1.0000   1.0000   1.0000   1.0000   1.0000   1.0000
        1.0000   1.0000   1.0000   1.0000   1.0000   1.0000   1.0000   1.0000
        1.0000   1.0000   1.0000   1.0000   1.0000   1.0000   1.0000   1.0000
        1.0000   1.0000   1.0000   1.0000   1.0000   1.0000   1.0000   1.0000
        1.0000   1.0000   1.0000   1.0000   1.0000   1.0000   1.0000   1.0000
        1.0000   1.0000   1.0000   1.0000   1.0000   1.0000   1.0000   1.0000
        1.0000   1.0000   1.0000   1.0000   1.0000   1.0000   1.0000   1.0000
        1.0000   1.0000   1.0000   1.0000   1.0000   1.0000   1.0000   1.0000
        1.0000   1.0000   1.0000   1.0000   1.0000   1.0000   1.0000   1.0000
        1.0000   1.0000   1.0000   1.0000   1.0000   1.0000   1.0000   1.0000
        1.0000   1.0000   1.0000   1.0000   1.0000   1.0000   1.0000   1.0000
        1.0000   1.0000   1.0000   1.0000   1.0000   1.0000   1.0000   1.0000
        1.0000   1.0000   1.0000   1.0000   1.0000   1.0000   1.0000   1.0000
        1.0000   1.0000   1.0000   1.0000   1.0000   1.0000   1.0000   1.0000
        1.0000   1.0000   1.0000   1.0000   1.0000   1.0000   1.0000   1.0000
        1.0000   1.0000   1.0000   1.0000   1.0000   1.0000   1.0000   1.0000
        1.0000   1.0000   0.0000   1.0000   0.0000   0.0000   0.0000   0.0000
        0.0000   0.0000   0.0000   0.0000   0.0000   0.0000   0.0000   0.0000
        0.0000   0.0000   0.0000   0.0000   0.0000   0.0000   0.0000   0.0000
        0.0000   0.0000   0.0000   0.0000   0.0000   0.0000   0.0000   0.0000
        0.0000   0.0000   0.0000   0.0000   0.0000   0.0000   0.0000   0.0000
        0.0000   0.0000   0.0000   0.0000   0.0000   0.0000   0.0000   0.0000
        0.0000   0.0000   0.0000   0.0000   0.0000

     Estimated max dynamical RAM per process >     122.43 MB

     Estimated total dynamical RAM >       7.65 GB
     Generating pointlists ...
     new r_m :   0.0336 (alat units)  1.1176 (a.u.) for type    1
     new r_m :   0.0329 (alat units)  1.0924 (a.u.) for type    2
     new r_m :   0.0338 (alat units)  1.1242 (a.u.) for type    3
     new r_m :   0.0329 (alat units)  1.0924 (a.u.) for type    4
     new r_m :   0.0338 (alat units)  1.1242 (a.u.) for type    5

     Check: negative core charge=   -0.000006

     Initial potential from superposition of free atoms

     starting charge  390.98597, renormalised to  391.00000

     negative rho (up, down):  5.510E-02 5.809E-02
     Starting wfcs are  392 randomized atomic wfcs
     Checking if some PAW data can be deallocated... 

     total cpu time spent up to now is        8.3 secs

     Self-consistent Calculation

     iteration #  1     ecut=    40.00 Ry     beta= 0.70
     CG style diagonalization
     ethr =  1.00E-02,  avg # of iterations =  3.1

     negative rho (up, down):  3.246E-01 8.485E-03

     total cpu time spent up to now is       48.7 secs

     total energy              =   -1933.12674490 Ry
     Harris-Foulkes estimate   =   -1946.12724079 Ry
     estimated scf accuracy    <      19.81330091 Ry

     total magnetization       =     1.00 Bohr mag/cell
     absolute magnetization    =     1.72 Bohr mag/cell

     iteration #  2     ecut=    40.00 Ry     beta= 0.70
     CG style diagonalization
     ethr =  5.07E-03,  avg # of iterations =  4.0

     negative rho (up, down):  3.592E-01 8.069E-03

     total cpu time spent up to now is       85.1 secs

     total energy              =   -1936.79894621 Ry
     Harris-Foulkes estimate   =   -1943.83277416 Ry
     estimated scf accuracy    <      13.76386370 Ry

     total magnetization       =     1.00 Bohr mag/cell
     absolute magnetization    =     1.34 Bohr mag/cell

     iteration #  3     ecut=    40.00 Ry     beta= 0.70
     CG style diagonalization
     ethr =  3.52E-03,  avg # of iterations =  3.8

     negative rho (up, down):  3.879E-01 9.589E-03

     total cpu time spent up to now is      119.0 secs

     total energy              =   -1939.12872236 Ry
     Harris-Foulkes estimate   =   -1940.77613634 Ry
     estimated scf accuracy    <       3.81941281 Ry

     total magnetization       =     1.00 Bohr mag/cell
     absolute magnetization    =     2.48 Bohr mag/cell

     iteration #  4     ecut=    40.00 Ry     beta= 0.70
     CG style diagonalization
     ethr =  9.77E-04,  avg # of iterations =  3.6

     negative rho (up, down):  4.477E-01 9.490E-03

     total cpu time spent up to now is      150.5 secs

     total energy              =   -1939.99722477 Ry
     Harris-Foulkes estimate   =   -1940.28924074 Ry
     estimated scf accuracy    <       0.94688930 Ry

     total magnetization       =     1.00 Bohr mag/cell
     absolute magnetization    =     1.71 Bohr mag/cell

     iteration #  5     ecut=    40.00 Ry     beta= 0.70
     CG style diagonalization
     ethr =  2.42E-04,  avg # of iterations =  3.4

     negative rho (up, down):  4.097E-01 4.525E-02

     total cpu time spent up to now is      179.6 secs

     total energy              =   -1940.11426442 Ry
     Harris-Foulkes estimate   =   -1940.19224637 Ry
     estimated scf accuracy    <       0.30892464 Ry

     total magnetization       =     1.00 Bohr mag/cell
     absolute magnetization    =     2.34 Bohr mag/cell

     iteration #  6     ecut=    40.00 Ry     beta= 0.70
     CG style diagonalization
     c_bands:  2 eigenvalues not converged
     ethr =  7.90E-05,  avg # of iterations =  3.4

     negative rho (up, down):  4.269E-01 3.571E-02

     total cpu time spent up to now is      208.6 secs

     total energy              =   -1940.14268759 Ry
     Harris-Foulkes estimate   =   -1940.16917777 Ry
     estimated scf accuracy    <       0.08903801 Ry

     total magnetization       =     1.00 Bohr mag/cell
     absolute magnetization    =     1.87 Bohr mag/cell

     iteration #  7     ecut=    40.00 Ry     beta= 0.70
     CG style diagonalization
     c_bands:  2 eigenvalues not converged
     c_bands:  1 eigenvalues not converged
     ethr =  2.28E-05,  avg # of iterations =  3.6

     negative rho (up, down):  4.609E-01 1.420E-02

     total cpu time spent up to now is      240.6 secs

     total energy              =   -1940.16116777 Ry
     Harris-Foulkes estimate   =   -1940.16200113 Ry
     estimated scf accuracy    <       0.01878335 Ry

     total magnetization       =     1.00 Bohr mag/cell
     absolute magnetization    =     1.80 Bohr mag/cell

     iteration #  8     ecut=    40.00 Ry     beta= 0.70
     CG style diagonalization
     c_bands:  1 eigenvalues not converged
     c_bands:  4 eigenvalues not converged
     ethr =  4.80E-06,  avg # of iterations =  6.1

     negative rho (up, down):  4.791E-01 7.366E-03

     total cpu time spent up to now is      295.9 secs

     total energy              =   -1940.16672392 Ry
     Harris-Foulkes estimate   =   -1940.16622894 Ry
     estimated scf accuracy    <       0.00550916 Ry

     total magnetization       =     1.00 Bohr mag/cell
     absolute magnetization    =     1.89 Bohr mag/cell

     iteration #  9     ecut=    40.00 Ry     beta= 0.70
     CG style diagonalization
     c_bands:  3 eigenvalues not converged
     c_bands:  4 eigenvalues not converged
     ethr =  1.41E-06,  avg # of iterations =  5.8

     negative rho (up, down):  4.823E-01 8.050E-03

     total cpu time spent up to now is      347.8 secs

     total energy              =   -1940.16820282 Ry
     Harris-Foulkes estimate   =   -1940.16855637 Ry
     estimated scf accuracy    <       0.00239839 Ry

     total magnetization       =     1.00 Bohr mag/cell
     absolute magnetization    =     1.93 Bohr mag/cell

     iteration # 10     ecut=    40.00 Ry     beta= 0.70
     CG style diagonalization
     c_bands:  1 eigenvalues not converged
     c_bands:  2 eigenvalues not converged
     ethr =  6.13E-07,  avg # of iterations =  3.7

     negative rho (up, down):  4.818E-01 8.055E-03

     total cpu time spent up to now is      380.7 secs

     total energy              =   -1940.16850110 Ry
     Harris-Foulkes estimate   =   -1940.16925825 Ry
     estimated scf accuracy    <       0.00289468 Ry

     total magnetization       =     1.00 Bohr mag/cell
     absolute magnetization    =     2.00 Bohr mag/cell

     iteration # 11     ecut=    40.00 Ry     beta= 0.70
     CG style diagonalization
     c_bands:  1 eigenvalues not converged
     c_bands:  1 eigenvalues not converged
     ethr =  6.13E-07,  avg # of iterations =  3.2

     negative rho (up, down):  4.799E-01 7.966E-03

     total cpu time spent up to now is      408.3 secs

     total energy              =   -1940.16891076 Ry
     Harris-Foulkes estimate   =   -1940.16896389 Ry
     estimated scf accuracy    <       0.00022301 Ry

     total magnetization       =     1.00 Bohr mag/cell
     absolute magnetization    =     1.99 Bohr mag/cell

     iteration # 12     ecut=    40.00 Ry     beta= 0.70
     CG style diagonalization
     c_bands:  1 eigenvalues not converged
     ethr =  5.70E-08,  avg # of iterations =  3.7

     negative rho (up, down):  4.808E-01 8.121E-03

     total cpu time spent up to now is      440.2 secs

     total energy              =   -1940.16901854 Ry
     Harris-Foulkes estimate   =   -1940.16900635 Ry
     estimated scf accuracy    <       0.00009495 Ry

     total magnetization       =     1.00 Bohr mag/cell
     absolute magnetization    =     2.00 Bohr mag/cell

     iteration # 13     ecut=    40.00 Ry     beta= 0.70
     CG style diagonalization
     ethr =  2.43E-08,  avg # of iterations =  3.5

     negative rho (up, down):  4.805E-01 8.143E-03

     total cpu time spent up to now is      471.3 secs

     total energy              =   -1940.16904626 Ry
     Harris-Foulkes estimate   =   -1940.16904958 Ry
     estimated scf accuracy    <       0.00002093 Ry

     total magnetization       =     1.00 Bohr mag/cell
     absolute magnetization    =     2.02 Bohr mag/cell

     iteration # 14     ecut=    40.00 Ry     beta= 0.70
     CG style diagonalization
     ethr =  5.35E-09,  avg # of iterations =  3.4

     negative rho (up, down):  4.802E-01 8.159E-03

     total cpu time spent up to now is      500.6 secs

     total energy              =   -1940.16904906 Ry
     Harris-Foulkes estimate   =   -1940.16904995 Ry
     estimated scf accuracy    <       0.00000860 Ry

     total magnetization       =     1.00 Bohr mag/cell
     absolute magnetization    =     2.02 Bohr mag/cell

     iteration # 15     ecut=    40.00 Ry     beta= 0.70
     CG style diagonalization
     ethr =  2.20E-09,  avg # of iterations =  3.5

     negative rho (up, down):  4.801E-01 8.163E-03

     total cpu time spent up to now is      531.0 secs

     total energy              =   -1940.16905162 Ry
     Harris-Foulkes estimate   =   -1940.16905114 Ry
     estimated scf accuracy    <       0.00000273 Ry

     total magnetization       =     1.00 Bohr mag/cell
     absolute magnetization    =     2.02 Bohr mag/cell

     iteration # 16     ecut=    40.00 Ry     beta= 0.70
     CG style diagonalization
     ethr =  6.97E-10,  avg # of iterations =  3.6

     negative rho (up, down):  4.801E-01 8.180E-03

     total cpu time spent up to now is      562.6 secs

     total energy              =   -1940.16905258 Ry
     Harris-Foulkes estimate   =   -1940.16905334 Ry
     estimated scf accuracy    <       0.00000386 Ry

     total magnetization       =     1.00 Bohr mag/cell
     absolute magnetization    =     2.02 Bohr mag/cell

     iteration # 17     ecut=    40.00 Ry     beta= 0.70
     CG style diagonalization
     ethr =  6.97E-10,  avg # of iterations =  3.3

     negative rho (up, down):  4.801E-01 8.182E-03

     total cpu time spent up to now is      590.8 secs

     total energy              =   -1940.16905331 Ry
     Harris-Foulkes estimate   =   -1940.16905347 Ry
     estimated scf accuracy    <       0.00000059 Ry

     total magnetization       =     1.00 Bohr mag/cell
     absolute magnetization    =     2.02 Bohr mag/cell

     iteration # 18     ecut=    40.00 Ry     beta= 0.70
     CG style diagonalization
     ethr =  1.52E-10,  avg # of iterations =  3.5

     negative rho (up, down):  4.801E-01 8.181E-03

     total cpu time spent up to now is      620.5 secs

     total energy              =   -1940.16905344 Ry
     Harris-Foulkes estimate   =   -1940.16905348 Ry
     estimated scf accuracy    <       0.00000021 Ry

     total magnetization       =     1.00 Bohr mag/cell
     absolute magnetization    =     2.03 Bohr mag/cell

     iteration # 19     ecut=    40.00 Ry     beta= 0.70
     CG style diagonalization
     ethr =  5.40E-11,  avg # of iterations =  3.5

     negative rho (up, down):  4.801E-01 8.187E-03

     total cpu time spent up to now is      650.9 secs

     total energy              =   -1940.16905349 Ry
     Harris-Foulkes estimate   =   -1940.16905351 Ry
     estimated scf accuracy    <       0.00000005 Ry

     total magnetization       =     1.00 Bohr mag/cell
     absolute magnetization    =     2.03 Bohr mag/cell

     iteration # 20     ecut=    40.00 Ry     beta= 0.70
     CG style diagonalization
     ethr =  1.21E-11,  avg # of iterations =  3.8

     negative rho (up, down):  4.801E-01 8.184E-03

     total cpu time spent up to now is      684.8 secs

     total energy              =   -1940.16905350 Ry
     Harris-Foulkes estimate   =   -1940.16905353 Ry
     estimated scf accuracy    <       0.00000009 Ry

     total magnetization       =     1.00 Bohr mag/cell
     absolute magnetization    =     2.03 Bohr mag/cell

     iteration # 21     ecut=    40.00 Ry     beta= 0.70
     CG style diagonalization
     ethr =  1.21E-11,  avg # of iterations =  3.3

     negative rho (up, down):  4.801E-01 8.187E-03

     total cpu time spent up to now is      713.4 secs

     total energy              =   -1940.16905352 Ry
     Harris-Foulkes estimate   =   -1940.16905352 Ry
     estimated scf accuracy    <       0.00000001 Ry

     total magnetization       =     1.00 Bohr mag/cell
     absolute magnetization    =     2.03 Bohr mag/cell

     iteration # 22     ecut=    40.00 Ry     beta= 0.70
     CG style diagonalization
     ethr =  3.23E-12,  avg # of iterations =  3.4

     negative rho (up, down):  4.801E-01 8.186E-03

     total cpu time spent up to now is      742.6 secs

     total energy              =   -1940.16905353 Ry
     Harris-Foulkes estimate   =   -1940.16905352 Ry
     estimated scf accuracy    <          7.2E-10 Ry

     total magnetization       =     1.00 Bohr mag/cell
     absolute magnetization    =     2.03 Bohr mag/cell

     iteration # 23     ecut=    40.00 Ry     beta= 0.70
     CG style diagonalization
     ethr =  1.84E-13,  avg # of iterations =  4.0

     negative rho (up, down):  4.801E-01 8.185E-03

     total cpu time spent up to now is      778.8 secs

     total energy              =   -1940.16905353 Ry
     Harris-Foulkes estimate   =   -1940.16905353 Ry
     estimated scf accuracy    <          5.9E-10 Ry

     total magnetization       =     1.00 Bohr mag/cell
     absolute magnetization    =     2.03 Bohr mag/cell

     iteration # 24     ecut=    40.00 Ry     beta= 0.70
     CG style diagonalization
     ethr =  1.50E-13,  avg # of iterations =  3.5

     negative rho (up, down):  4.801E-01 8.184E-03
 
     Magnetic moment per site:
     atom:    1    charge:    0.8538    magn:    0.0000    constr:    0.0000
     atom:    2    charge:    0.8490    magn:    0.0011    constr:    0.0000
     atom:    3    charge:    0.8498    magn:   -0.0003    constr:    0.0000
     atom:    4    charge:    0.8518    magn:    0.0003    constr:    0.0000
     atom:    5    charge:    0.8545    magn:    0.0009    constr:    0.0000
     atom:    6    charge:    0.8527    magn:   -0.0001    constr:    0.0000
     atom:    7    charge:    0.8537    magn:    0.0013    constr:    0.0000
     atom:    8    charge:    0.8526    magn:    0.0007    constr:    0.0000
     atom:    9    charge:    0.8539    magn:    0.0009    constr:    0.0000
     atom:   10    charge:    0.8464    magn:    0.0023    constr:    0.0000
     atom:   11    charge:    0.8502    magn:   -0.0004    constr:    0.0000
     atom:   12    charge:    0.8553    magn:    0.0003    constr:    0.0000
     atom:   13    charge:    0.8545    magn:    0.0001    constr:    0.0000
     atom:   14    charge:    0.8527    magn:   -0.0001    constr:    0.0000
     atom:   15    charge:    0.8528    magn:    0.0012    constr:    0.0000
     atom:   16    charge:    0.8582    magn:    0.0047    constr:    0.0000
     atom:   17    charge:    0.8651    magn:    0.0107    constr:    0.0000
     atom:   18    charge:    0.8535    magn:    0.0027    constr:    0.0000
     atom:   19    charge:    0.8628    magn:    0.0049    constr:    0.0000
     atom:   20    charge:    0.8553    magn:    0.0003    constr:    0.0000
     atom:   21    charge:    0.8545    magn:    0.0009    constr:    0.0000
     atom:   22    charge:    0.8495    magn:    0.0001    constr:    0.0000
     atom:   23    charge:    0.8465    magn:   -0.0004    constr:    0.0000
     atom:   24    charge:    0.8432    magn:    0.0093    constr:    0.0000
     atom:   25    charge:    1.6233    magn:    0.2011    constr:    0.0000
     atom:   26    charge:    0.8535    magn:    0.0027    constr:    0.0000
     atom:   27    charge:    0.8502    magn:   -0.0004    constr:    0.0000
     atom:   28    charge:    0.8518    magn:    0.0003    constr:    0.0000
     atom:   29    charge:    0.8497    magn:    0.0008    constr:    0.0000
     atom:   30    charge:    0.8499    magn:    0.0009    constr:    0.0000
     atom:   31    charge:    0.8490    magn:    0.0053    constr:    0.0000
     atom:   32    charge:    0.8432    magn:    0.0093    constr:    0.0000
     atom:   33    charge:    0.8651    magn:    0.0107    constr:    0.0000
     atom:   34    charge:    0.8464    magn:    0.0023    constr:    0.0000
     atom:   35    charge:    0.8498    magn:   -0.0003    constr:    0.0000
     atom:   36    charge:    0.8489    magn:   -0.0003    constr:    0.0000
     atom:   37    charge:    0.8482    magn:    0.0004    constr:    0.0000
     atom:   38    charge:    0.8499    magn:    0.0009    constr:    0.0000
     atom:   39    charge:    0.8465    magn:   -0.0004    constr:    0.0000
     atom:   40    charge:    0.8582    magn:    0.0047    constr:    0.0000
     atom:   41    charge:    0.8539    magn:    0.0009    constr:    0.0000
     atom:   42    charge:    0.8490    magn:    0.0011    constr:    0.0000
     atom:   43    charge:    0.8490    magn:    0.0011    constr:    0.0000
     atom:   44    charge:    0.8489    magn:   -0.0003    constr:    0.0000
     atom:   45    charge:    0.8497    magn:    0.0008    constr:    0.0000
     atom:   46    charge:    0.8495    magn:    0.0001    constr:    0.0000
     atom:   47    charge:    0.8528    magn:    0.0012    constr:    0.0000
     atom:   48    charge:    0.8526    magn:    0.0007    constr:    0.0000
     atom:   49    charge:    0.8538    magn:    0.0000    constr:    0.0000
     atom:   50    charge:    2.6990    magn:   -0.0002    constr:    0.0000
     atom:   51    charge:    2.6974    magn:   -0.0003    constr:    0.0000
     atom:   52    charge:    2.6874    magn:    0.0021    constr:    0.0000
     atom:   53    charge:    2.6968    magn:    0.0038    constr:    0.0000
     atom:   54    charge:    2.6985    magn:   -0.0004    constr:    0.0000
     atom:   55    charge:    2.6908    magn:    0.0008    constr:    0.0000
     atom:   56    charge:    2.6935    magn:    0.0003    constr:    0.0000
     atom:   57    charge:    2.6941    magn:    0.0017    constr:    0.0000
     atom:   58    charge:    2.6945    magn:    0.0030    constr:    0.0000
     atom:   59    charge:    2.6853    magn:    0.0162    constr:    0.0000
     atom:   60    charge:    2.6871    magn:   -0.0168    constr:    0.0000
     atom:   61    charge:    2.6948    magn:    0.0140    constr:    0.0000
     atom:   62    charge:    2.6905    magn:    0.0098    constr:    0.0000
     atom:   63    charge:    2.6908    magn:    0.0008    constr:    0.0000
     atom:   64    charge:    2.6989    magn:    0.0000    constr:    0.0000
     atom:   65    charge:    2.6991    magn:    0.0045    constr:    0.0000
     atom:   66    charge:    2.6964    magn:   -0.0107    constr:    0.0000
     atom:   67    charge:    1.7368    magn:   -0.0777    constr:    0.0000
     atom:   68    charge:    2.6797    magn:    0.0963    constr:    0.0000
     atom:   69    charge:    2.6948    magn:    0.0140    constr:    0.0000
     atom:   70    charge:    2.6985    magn:   -0.0004    constr:    0.0000
     atom:   71    charge:    2.6978    magn:    0.0004    constr:    0.0000
     atom:   72    charge:    2.6929    magn:   -0.0004    constr:    0.0000
     atom:   73    charge:    2.6875    magn:    0.0078    constr:    0.0000
     atom:   74    charge:    2.6583    magn:    0.0907    constr:    0.0000
     atom:   75    charge:    1.7368    magn:   -0.0776    constr:    0.0000
     atom:   76    charge:    2.6871    magn:   -0.0168    constr:    0.0000
     atom:   77    charge:    2.6968    magn:    0.0038    constr:    0.0000
     atom:   78    charge:    2.6965    magn:   -0.0002    constr:    0.0000
     atom:   79    charge:    2.6926    magn:   -0.0001    constr:    0.0000
     atom:   80    charge:    2.6880    magn:    0.0048    constr:    0.0000
     atom:   81    charge:    2.6875    magn:    0.0078    constr:    0.0000
     atom:   82    charge:    2.6964    magn:   -0.0107    constr:    0.0000
     atom:   83    charge:    2.6853    magn:    0.0162    constr:    0.0000
     atom:   84    charge:    2.6874    magn:    0.0021    constr:    0.0000
     atom:   85    charge:    2.6944    magn:   -0.0000    constr:    0.0000
     atom:   86    charge:    2.6938    magn:    0.0004    constr:    0.0000
     atom:   87    charge:    2.6926    magn:   -0.0001    constr:    0.0000
     atom:   88    charge:    2.6929    magn:   -0.0004    constr:    0.0000
     atom:   89    charge:    2.6991    magn:    0.0045    constr:    0.0000
     atom:   90    charge:    2.6945    magn:    0.0030    constr:    0.0000
     atom:   91    charge:    2.6974    magn:   -0.0003    constr:    0.0000
     atom:   92    charge:    2.7005    magn:    0.0005    constr:    0.0000
     atom:   93    charge:    2.6944    magn:   -0.0000    constr:    0.0000
     atom:   94    charge:    2.6965    magn:   -0.0002    constr:    0.0000
     atom:   95    charge:    2.6978    magn:    0.0004    constr:    0.0000
     atom:   96    charge:    2.6989    magn:    0.0000    constr:    0.0000
     atom:   97    charge:    2.6941    magn:    0.0017    constr:    0.0000
     atom:   98    charge:    2.6990    magn:   -0.0002    constr:    0.0000

     total cpu time spent up to now is      808.8 secs

     End of self-consistent calculation

 ------ SPIN UP ------------


          k = 0.0000 0.0000 0.0000 ( 77471 PWs)   bands (ev):

   -21.8158 -21.6249 -21.4001 -21.3893 -21.3815 -21.3024 -21.2859 -20.8778
   -20.6648 -20.6553 -20.6237 -20.5513 -20.5475 -20.4312 -20.2971 -20.2924
   -20.2795 -20.1307 -20.1071 -19.5928 -19.4207 -19.4074 -19.4005 -19.3953
   -19.3844 -19.3751 -19.3700 -19.3318 -19.3040 -19.1783 -19.1664 -19.0405
   -18.9768 -18.9740 -18.9518 -18.7691 -18.7677 -18.5547 -18.5467 -18.5262
   -18.5230 -18.4751 -18.4263 -18.4046 -18.3709 -18.3465 -18.3456 -16.7283
   -14.7386 -13.1279 -12.7795 -12.7737 -12.7496 -12.7223 -12.7171 -12.6554
   -12.5685 -12.5342 -12.5255 -12.4788 -12.4114 -12.1536 -12.0709 -12.0620
   -12.0266 -11.9791 -11.9450 -11.5595 -11.4213 -11.4129 -11.3955 -11.3947
   -11.3725 -11.3698 -11.3616 -11.3165 -11.3003 -11.0763 -11.0467 -10.8758
   -10.7255 -10.7121 -10.6780 -10.6518 -10.5031 -10.0722 -10.0336 -10.0106
    -9.9377  -9.8781  -9.8181  -9.3995  -9.3373  -9.3218  -9.3141  -9.2918
    -9.2817  -9.2237  -9.0598  -8.9507  -8.9467  -8.9173  -8.9144  -8.9085
    -8.9023  -8.8900  -8.8820  -8.8643  -8.8359  -8.8307  -8.8275  -8.8263
    -8.8207  -8.7983  -8.7980  -8.7481  -8.7289  -8.7072  -8.6559  -8.6420
    -8.4700  -8.4528  -8.2228  -8.1933  -8.1928  -8.0924  -8.0853  -7.9882
    -7.8612  -7.8412  -7.8383  -7.7981  -7.7258  -7.7225  -7.5600  -7.5136
    -7.5043  -7.4777  -7.4756  -7.4558  -7.4435  -7.4078  -7.4043  -7.3567
    -7.3420  -7.3403  -7.3332  -7.2787  -7.2255  -7.2246  -7.1803  -7.0388
    -7.0309  -7.0009  -6.8935  -6.8145  -6.6529  -6.5349  -6.3012  -6.1960
    -6.1879  -6.1601  -6.0940  -6.0815  -6.0730  -6.0718  -6.0706  -6.0576
    -6.0509  -6.0478  -6.0319  -5.9750  -5.8693  -5.8152  -5.7977  -5.7012
    -5.5456  -5.4556  -5.4542  -5.4465  -5.3103  -5.2373  -5.1003  -5.0339
    -4.8040  -4.8029  -4.7816  -4.7639  -4.6805  -4.6712  -4.5749  -4.5225
    -4.5170  -4.5051  -4.3512  -3.0710  -0.0560   0.1759   0.6727   0.6757
     0.7064   0.7189   0.7257   0.7285   0.7763   0.7907   0.8041   0.8053
     0.8107   0.8260   0.8332   0.8520   0.8615   0.8913   0.9080   0.9334
     0.9604   1.1141   1.2113   1.2292   1.2325   1.2611   1.3104   1.3166
     1.3215   1.3262   1.3381   1.3578   1.3915   1.4353   1.4375   1.4409
     1.4495   1.4598   1.4834   1.8821   2.0565   2.0910   2.0943   2.1077
     2.1079   2.1268   2.1362   2.2080   2.3039

 ------ SPIN DOWN ----------


          k = 0.0000 0.0000 0.0000 ( 77471 PWs)   bands (ev):

   -21.7619 -21.5273 -21.3970 -21.3837 -21.3748 -21.2958 -21.2382 -20.8192
   -20.6577 -20.6370 -20.6230 -20.5468 -20.5318 -20.4148 -20.2890 -20.2864
   -20.2560 -20.1082 -20.0923 -19.5511 -19.4135 -19.4009 -19.3949 -19.3895
   -19.3799 -19.3728 -19.3576 -19.3109 -19.3016 -19.1605 -19.1564 -19.0307
   -18.9715 -18.9714 -18.9270 -18.7678 -18.7523 -18.5461 -18.5408 -18.5187
   -18.5062 -18.4691 -18.4156 -18.3973 -18.3684 -18.3404 -18.3291 -16.6056
   -14.8594 -13.0549 -12.7735 -12.7649 -12.7458 -12.7198 -12.7136 -12.6467
   -12.5624 -12.5276 -12.5204 -12.4686 -12.3992 -12.1421 -12.0621 -12.0528
   -12.0265 -11.9752 -11.9332 -11.5387 -11.4075 -11.4003 -11.3902 -11.3837
   -11.3693 -11.3576 -11.3572 -11.3064 -11.2887 -11.0829 -11.0339 -10.8570
   -10.7195 -10.7096 -10.6700 -10.6417 -10.4942 -10.0578 -10.0212  -9.9996
    -9.9270  -9.8730  -9.8116  -9.3870  -9.3108  -9.3030  -9.3013  -9.2883
    -9.2777  -9.2227  -9.0404  -8.9336  -8.9110  -8.9070  -8.9042  -8.8911
    -8.8849  -8.8764  -8.8559  -8.8428  -8.8280  -8.8256  -8.8233  -8.8099
    -8.8030  -8.7936  -8.7915  -8.7321  -8.7228  -8.6493  -8.6320  -8.5965
    -8.4689  -8.4504  -8.2201  -8.1918  -8.1904  -8.0824  -8.0742  -7.8614
    -7.8385  -7.8221  -7.7965  -7.7927  -7.7128  -7.6833  -7.5470  -7.5028
    -7.4959  -7.4740  -7.4537  -7.4419  -7.4002  -7.3997  -7.3837  -7.3367
    -7.3299  -7.3247  -7.2910  -7.2754  -7.2156  -7.1842  -7.1552  -7.0291
    -7.0280  -6.9964  -6.8821  -6.8073  -6.6568  -6.5454  -6.1896  -6.1822
    -6.1553  -6.1319  -6.0755  -6.0662  -6.0643  -6.0574  -6.0528  -6.0460
    -6.0373  -6.0209  -5.9821  -5.9590  -5.8237  -5.8198  -5.7881  -5.7113
    -5.4971  -5.4452  -5.4366  -5.4063  -5.2809  -5.2409  -5.1129  -5.0456
    -4.7807  -4.7705  -4.7460  -4.7451  -4.6676  -4.6561  -4.5525  -4.5128
    -4.4934  -4.4899  -4.1613  -3.3872   0.1845   0.4779   0.7058   0.7138
     0.7163   0.7328   0.7454   0.7523   0.7931   0.8053   0.8068   0.8079
     0.8141   0.8354   0.8535   0.8629   0.8802   0.9199   0.9398   0.9468
     1.0130   1.1685   1.2285   1.2556   1.2624   1.3109   1.3173   1.3176
     1.3225   1.3280   1.3460   1.3647   1.4186   1.4347   1.4368   1.4405
     1.4507   1.4607   1.4909   1.8885   2.0974   2.1019   2.1125   2.1233
     2.1417   2.1544   2.1909   2.2967   2.3015

     highest occupied, lowest unoccupied level (ev):    -4.3512   -4.1613

!    total energy              =   -1940.16905353 Ry
     Harris-Foulkes estimate   =   -1940.16905353 Ry
     estimated scf accuracy    <          6.7E-11 Ry

     total all-electron energy =     -7769.993530 Ry

     The total energy is the sum of the following terms:

     one-electron contribution =  -10643.86390304 Ry
     hartree contribution      =    5407.51921626 Ry
     xc contribution           =    -430.65843046 Ry
     ewald contribution        =    4370.28170176 Ry
     DFT-D3 Dispersion         =      -0.27012633 Ry
     one-center paw contrib.   =    -643.17751172 Ry

     total magnetization       =     1.00 Bohr mag/cell
     absolute magnetization    =     2.03 Bohr mag/cell

     convergence has been achieved in  24 iterations

     negative rho (up, down):  4.801E-01 8.184E-03

     Forces acting on atoms (cartesian axes, Ry/au):

     atom    1 type  1   force =     0.00002207   -0.00004910    0.00000000
     atom    2 type  1   force =    -0.00005910   -0.00001710    0.00000000
     atom    3 type  1   force =    -0.00002514   -0.00004537    0.00000000
     atom    4 type  1   force =    -0.00007014   -0.00007717    0.00000000
     atom    5 type  1   force =    -0.00001721   -0.00006279    0.00000000
     atom    6 type  1   force =     0.00006066   -0.00002030    0.00000000
     atom    7 type  1   force =     0.00001851   -0.00001199    0.00000000
     atom    8 type  1   force =     0.00002344   -0.00007875    0.00000000
     atom    9 type  1   force =     0.00005702    0.00003024    0.00000000
     atom   10 type  1   force =     0.00016489    0.00006030    0.00000000
     atom   11 type  1   force =     0.00014438   -0.00004375    0.00000000
     atom   12 type  1   force =    -0.00002774   -0.00005097    0.00000000
     atom   13 type  1   force =     0.00003877   -0.00002268    0.00000000
     atom   14 type  1   force =     0.00004752   -0.00004365    0.00000000
     atom   15 type  1   force =     0.00003122    0.00000936    0.00000000
     atom   16 type  1   force =    -0.00006215    0.00005600    0.00000000
     atom   17 type  1   force =     0.00002942    0.00012344    0.00000000
     atom   18 type  1   force =     0.00017308    0.00002696    0.00000000
     atom   19 type  1   force =     0.00011354   -0.00006498    0.00000000
     atom   20 type  1   force =     0.00003126    0.00004928    0.00000000
     atom   21 type  1   force =     0.00004637    0.00004553    0.00000000
     atom   22 type  1   force =     0.00000302    0.00006572    0.00000000
     atom   23 type  1   force =     0.00001085    0.00004596    0.00000000
     atom   24 type  1   force =    -0.00013846    0.00003047    0.00000000
     atom   25 type  4   force =    -0.00002764    0.00001433    0.00000000
     atom   26 type  1   force =     0.00006331   -0.00016410    0.00000000
     atom   27 type  1   force =     0.00011001   -0.00010338    0.00000000
     atom   28 type  1   force =     0.00003234    0.00009871    0.00000000
     atom   29 type  1   force =    -0.00003243    0.00013517    0.00000000
     atom   30 type  1   force =     0.00003341    0.00004443    0.00000000
     atom   31 type  1   force =    -0.00008839    0.00005107    0.00000000
     atom   32 type  1   force =    -0.00009544    0.00010482    0.00000000
     atom   33 type  1   force =    -0.00009439   -0.00008826    0.00000000
     atom   34 type  1   force =     0.00002966   -0.00017283    0.00000000
     atom   35 type  1   force =     0.00002715    0.00004407    0.00000000
     atom   36 type  1   force =    -0.00005532    0.00012153    0.00000000
     atom   37 type  1   force =    -0.00004815    0.00002773    0.00000000
     atom   38 type  1   force =    -0.00002175   -0.00005056    0.00000000
     atom   39 type  1   force =    -0.00003422   -0.00003169    0.00000000
     atom   40 type  1   force =    -0.00007916    0.00002597    0.00000000
     atom   41 type  1   force =     0.00000313   -0.00006415    0.00000000
     atom   42 type  1   force =    -0.00001460    0.00005923    0.00000000
     atom   43 type  1   force =    -0.00001435    0.00000784    0.00000000
     atom   44 type  1   force =    -0.00013346   -0.00001334    0.00000000
     atom   45 type  1   force =    -0.00013419   -0.00003939    0.00000000
     atom   46 type  1   force =    -0.00005633   -0.00003490    0.00000000
     atom   47 type  1   force =     0.00000722   -0.00003146    0.00000000
     atom   48 type  1   force =     0.00007984    0.00001853    0.00000000
     atom   49 type  1   force =     0.00005326    0.00000399    0.00000000
     atom   50 type  2   force =     0.00007540   -0.00004550    0.00000000
     atom   51 type  2   force =    -0.00002684    0.00003861    0.00000000
     atom   52 type  2   force =     0.00002884    0.00000042    0.00000000
     atom   53 type  2   force =     0.00006582   -0.00008570    0.00000000
     atom   54 type  2   force =    -0.00001786   -0.00006188    0.00000000
     atom   55 type  2   force =    -0.00001856    0.00001049    0.00000000
     atom   56 type  2   force =     0.00005484   -0.00003063    0.00000000
     atom   57 type  2   force =     0.00003551   -0.00007056    0.00000000
     atom   58 type  2   force =    -0.00002328   -0.00016686    0.00000000
     atom   59 type  2   force =    -0.00000675   -0.00004374    0.00000000
     atom   60 type  2   force =     0.00005649    0.00000943    0.00000000
     atom   61 type  2   force =    -0.00000312   -0.00001751    0.00000000
     atom   62 type  2   force =     0.00001793   -0.00001065    0.00000000
     atom   63 type  2   force =    -0.00001863    0.00001153    0.00000000
     atom   64 type  2   force =    -0.00005898    0.00006094    0.00000000
     atom   65 type  2   force =     0.00000461   -0.00004169    0.00000000
     atom   66 type  2   force =    -0.00005620   -0.00005489    0.00000000
     atom   67 type  3   force =    -0.00002979    0.00003407    0.00000000
     atom   68 type  2   force =    -0.00001007    0.00000641    0.00000000
     atom   69 type  2   force =     0.00001361    0.00001160    0.00000000
     atom   70 type  2   force =     0.00004433    0.00004661    0.00000000
     atom   71 type  2   force =     0.00003127    0.00009750    0.00000000
     atom   72 type  2   force =    -0.00000238    0.00009728    0.00000000
     atom   73 type  2   force =    -0.00001076    0.00001260    0.00000000
     atom   74 type  2   force =    -0.00006163    0.00003638    0.00000000
     atom   75 type  5   force =    -0.00004298    0.00001096    0.00000000
     atom   76 type  2   force =     0.00001995   -0.00005301    0.00000000
     atom   77 type  2   force =     0.00010703   -0.00001439    0.00000000
     atom   78 type  2   force =    -0.00000028   -0.00002097    0.00000000
     atom   79 type  2   force =    -0.00004988    0.00009710    0.00000000
     atom   80 type  2   force =    -0.00007369    0.00004210    0.00000000
     atom   81 type  2   force =    -0.00001679    0.00000341    0.00000000
     atom   82 type  2   force =     0.00002034    0.00007518    0.00000000
     atom   83 type  2   force =     0.00003438    0.00002815    0.00000000
     atom   84 type  2   force =     0.00001358   -0.00002512    0.00000000
     atom   85 type  2   force =    -0.00007373   -0.00001001    0.00000000
     atom   86 type  2   force =    -0.00007902    0.00004596    0.00000000
     atom   87 type  2   force =    -0.00010848   -0.00000563    0.00000000
     atom   88 type  2   force =    -0.00008530   -0.00004675    0.00000000
     atom   89 type  2   force =     0.00003769    0.00001642    0.00000000
     atom   90 type  2   force =     0.00013249    0.00010333    0.00000000
     atom   91 type  2   force =    -0.00004684    0.00000429    0.00000000
     atom   92 type  2   force =     0.00000364   -0.00000128    0.00000000
     atom   93 type  2   force =    -0.00002786    0.00006908    0.00000000
     atom   94 type  2   force =     0.00001847    0.00001086    0.00000000
     atom   95 type  2   force =    -0.00006760   -0.00007584    0.00000000
     atom   96 type  2   force =    -0.00008142    0.00002030    0.00000000
     atom   97 type  2   force =     0.00007929    0.00000480    0.00000000
     atom   98 type  2   force =     0.00007761   -0.00004122    0.00000000

     Total force =     0.000861     Total SCF correction =     0.000016


     Computing stress (Cartesian axis) and pressure


     negative rho (up, down):  4.801E-01 8.184E-03
          total   stress  (Ry/bohr**3)                   (kbar)     P=   -0.19
  -0.00000027   0.00000002   0.00000000         -0.04      0.00      0.00
   0.00000002  -0.00000024   0.00000000          0.00     -0.04      0.00
   0.00000000   0.00000000  -0.00000334          0.00      0.00     -0.49


     BFGS Geometry Optimization

     number of scf cycles    =   1
     number of bfgs steps    =   0

     enthalpy new            =   -1940.1690535257 Ry

     new trust radius        =       0.0002563142 bohr
     new conv_thr            =            1.0E-10 Ry

     new unit-cell volume =  36234.09181 a.u.^3 (  5369.33837 Ang^3 )
     density =      0.36308 g/cm^3

CELL_PARAMETERS (alat= 33.23461096)
   1.001027077   0.000169850   0.000000000
  -0.500366444   0.866999805   0.000000000
   0.000000000   0.000000000   1.137203616

ATOMIC_POSITIONS (crystal)
B        0.047273909   0.094698760   0.500000000
B        0.047313576   0.237729225   0.500000000
B        0.047264992   0.380872570   0.500000000
B        0.047188072   0.523769407   0.500000000
B        0.047625705   0.666650961   0.500000000
B        0.047881475   0.809644151   0.500000000
B        0.047685955   0.952314035   0.500000000
B        0.189917072   0.094363160   0.500000000
B        0.189214376   0.236532477   0.500000000
B        0.190029610   0.380702052   0.500000000
B        0.189464392   0.523650123   0.500000000
B        0.189635292   0.666790454   0.500000000
B        0.190334142   0.809665852   0.500000000
B        0.190355837   0.952118515   0.500000000
B        0.333209853   0.094355110   0.500000000
B        0.332743257   0.236134379   0.500000000
B        0.331526896   0.377332110   0.500000000
B        0.332312286   0.524945494   0.500000000
B        0.331903130   0.668096861   0.500000000
B        0.333209543   0.810364703   0.500000000
B        0.333349031   0.952374292   0.500000000
B        0.476248268   0.095132694   0.500000000
B        0.476076022   0.237714161   0.500000000
B        0.475106960   0.379872820   0.500000000
C2       0.477390399   0.522609554   0.500000000
B        0.475054467   0.667687667   0.500000000
B        0.476349860   0.810535597   0.500000000
B        0.476230586   0.952811922   0.500000000
B        0.618987268   0.095282906   0.500000000
B        0.619012116   0.238000415   0.500000000
B        0.619073000   0.380926983   0.500000000
B        0.620127156   0.524893002   0.500000000
B        0.622667817   0.668473055   0.500000000
B        0.619297947   0.809970393   0.500000000
B        0.619127439   0.952735017   0.500000000
B        0.761874449   0.095308336   0.500000000
B        0.761836852   0.238163170   0.500000000
B        0.761999592   0.380987889   0.500000000
B        0.762285845   0.523923969   0.500000000
B        0.763865630   0.667256737   0.500000000
B        0.763467536   0.810785627   0.500000000
B        0.762270796   0.952686441   0.500000000
B        0.904827845   0.095172176   0.500000000
B        0.904691688   0.238125574   0.500000000
B        0.904717102   0.381012738   0.500000000
B        0.904867305   0.523751733   0.500000000
B        0.905644901   0.666790147   0.500000000
B        0.905636854   0.810082931   0.500000000
B        0.905301245   0.952726086   0.500000000
N        0.094960091   0.047219403   0.500000000
N        0.094408023   0.189608035   0.500000000
N        0.094836358   0.333105637   0.500000000
N        0.094543194   0.476052669   0.500000000
N        0.094735768   0.618936992   0.500000000
N        0.095271340   0.761908551   0.500000000
N        0.095291906   0.904708130   0.500000000
N        0.237933855   0.047099415   0.500000000
N        0.237314915   0.189253416   0.500000000
N        0.236508331   0.331477475   0.500000000
N        0.237000823   0.476201788   0.500000000
N        0.236805577   0.619249710   0.500000000
N        0.237868394   0.762131594   0.500000000
N        0.238091450   0.904728676   0.500000000
N        0.381089645   0.047337089   0.500000000
N        0.380927251   0.189285911   0.500000000
N        0.380008814   0.330359377   0.500000000
C1       0.382818429   0.476000934   0.500000000
N        0.378922769   0.621077238   0.500000000
N        0.380750281   0.763194419   0.500000000
N        0.381062997   0.905264238   0.500000000
N        0.523911445   0.047811470   0.500000000
N        0.523881197   0.190437858   0.500000000
N        0.523686748   0.333438456   0.500000000
N        0.523350135   0.476649860   0.500000000
C3       0.523999075   0.617181575   0.500000000
N        0.523798204   0.762999169   0.500000000
N        0.523947321   0.905456805   0.500000000
N        0.666698643   0.047844243   0.500000000
N        0.666628878   0.190528303   0.500000000
N        0.666593158   0.333406831   0.500000000
N        0.666561533   0.476313242   0.500000000
N        0.669640605   0.619991146   0.500000000
N        0.668522506   0.763491651   0.500000000
N        0.666894361   0.905163650   0.500000000
N        0.809612276   0.047780312   0.500000000
N        0.809458086   0.190541954   0.500000000
N        0.809471720   0.333371131   0.500000000
N        0.809562143   0.476118790   0.500000000
N        0.810714074   0.619072725   0.500000000
N        0.810746585   0.762685084   0.500000000
N        0.810391975   0.905591990   0.500000000
N        0.952395534   0.047604512   0.500000000
N        0.952219725   0.190387755   0.500000000
N        0.952155785   0.333301372   0.500000000
N        0.952188552   0.476088549   0.500000000
N        0.952662928   0.618910342   0.500000000
N        0.952900605   0.762066153   0.500000000
N        0.952780641   0.905039948   0.500000000



     Writing output data file C2Cn.save/
     NEW-OLD atomic charge density approx. for the potential
     NEW k-points:
   0.0000000   0.0000000   0.0000000   1.0000000
   0.0000000   0.0000000   0.0000000   1.0000000

     Check: negative core charge=   -0.000006

     negative rho (up, down):  4.801E-01 4.229E-03
     extrapolated charge  390.99499, renormalised to  391.00000

     total cpu time spent up to now is      830.3 secs

     Self-consistent Calculation

     iteration #  1     ecut=    40.00 Ry     beta= 0.70
     CG style diagonalization
     ethr =  1.00E-06,  avg # of iterations =  2.0

     Threshold (ethr) on eigenvalues was too large:
     Diagonalizing with lowered threshold

     CG style diagonalization
     ethr =  7.47E-11,  avg # of iterations = 13.7

     negative rho (up, down):  4.801E-01 7.508E-03

     total cpu time spent up to now is      998.4 secs

     total energy              =   -1940.16905465 Ry
     Harris-Foulkes estimate   =   -1940.30123533 Ry
     estimated scf accuracy    <       0.00000049 Ry

     total magnetization       =     1.00 Bohr mag/cell
     absolute magnetization    =     2.03 Bohr mag/cell

     iteration #  2     ecut=    40.00 Ry     beta= 0.70
     CG style diagonalization
     ethr =  1.24E-10,  avg # of iterations =  4.5

     negative rho (up, down):  4.801E-01 7.668E-03

     total cpu time spent up to now is     1040.0 secs

     total energy              =   -1940.16905488 Ry
     Harris-Foulkes estimate   =   -1940.16905550 Ry
     estimated scf accuracy    <       0.00000109 Ry

     total magnetization       =     1.00 Bohr mag/cell
     absolute magnetization    =     2.03 Bohr mag/cell

     iteration #  3     ecut=    40.00 Ry     beta= 0.70
     CG style diagonalization
     ethr =  1.24E-10,  avg # of iterations =  3.7

     negative rho (up, down):  4.801E-01 7.793E-03

     total cpu time spent up to now is     1073.2 secs

     total energy              =   -1940.16905474 Ry
     Harris-Foulkes estimate   =   -1940.16905500 Ry
     estimated scf accuracy    <       0.00000014 Ry

     total magnetization       =     1.00 Bohr mag/cell
     absolute magnetization    =     2.03 Bohr mag/cell

     iteration #  4     ecut=    40.00 Ry     beta= 0.70
     CG style diagonalization
     ethr =  3.46E-11,  avg # of iterations =  3.2

     negative rho (up, down):  4.801E-01 8.015E-03

     total cpu time spent up to now is     1099.6 secs

     total energy              =   -1940.16905437 Ry
     Harris-Foulkes estimate   =   -1940.16905476 Ry
     estimated scf accuracy    <       0.00000009 Ry

     total magnetization       =     1.00 Bohr mag/cell
     absolute magnetization    =     2.03 Bohr mag/cell

     iteration #  5     ecut=    40.00 Ry     beta= 0.70
     CG style diagonalization
     ethr =  2.20E-11,  avg # of iterations =  3.2

     negative rho (up, down):  4.801E-01 8.088E-03

     total cpu time spent up to now is     1126.7 secs

     total energy              =   -1940.16905426 Ry
     Harris-Foulkes estimate   =   -1940.16905439 Ry
     estimated scf accuracy    <          8.3E-09 Ry

     total magnetization       =     1.00 Bohr mag/cell
     absolute magnetization    =     2.03 Bohr mag/cell

     iteration #  6     ecut=    40.00 Ry     beta= 0.70
     CG style diagonalization
     ethr =  2.11E-12,  avg # of iterations =  3.7

     negative rho (up, down):  4.801E-01 8.141E-03

     total cpu time spent up to now is     1158.6 secs

     total energy              =   -1940.16905415 Ry
     Harris-Foulkes estimate   =   -1940.16905426 Ry
     estimated scf accuracy    <          4.6E-09 Ry

     total magnetization       =     1.00 Bohr mag/cell
     absolute magnetization    =     2.03 Bohr mag/cell

     iteration #  7     ecut=    40.00 Ry     beta= 0.70
     CG style diagonalization
     ethr =  1.19E-12,  avg # of iterations =  3.2

     negative rho (up, down):  4.801E-01 8.172E-03

     total cpu time spent up to now is     1185.9 secs

     total energy              =   -1940.16905409 Ry
     Harris-Foulkes estimate   =   -1940.16905415 Ry
     estimated scf accuracy    <          4.3E-10 Ry

     total magnetization       =     1.00 Bohr mag/cell
     absolute magnetization    =     2.03 Bohr mag/cell

     iteration #  8     ecut=    40.00 Ry     beta= 0.70
     CG style diagonalization
     ethr =  1.09E-13,  avg # of iterations =  3.5

     negative rho (up, down):  4.801E-01 8.175E-03
 
     Magnetic moment per site:
     atom:    1    charge:    0.8537    magn:    0.0000    constr:    0.0000
     atom:    2    charge:    0.8490    magn:    0.0011    constr:    0.0000
     atom:    3    charge:    0.8498    magn:   -0.0003    constr:    0.0000
     atom:    4    charge:    0.8517    magn:    0.0003    constr:    0.0000
     atom:    5    charge:    0.8545    magn:    0.0009    constr:    0.0000
     atom:    6    charge:    0.8527    magn:   -0.0001    constr:    0.0000
     atom:    7    charge:    0.8537    magn:    0.0013    constr:    0.0000
     atom:    8    charge:    0.8526    magn:    0.0007    constr:    0.0000
     atom:    9    charge:    0.8539    magn:    0.0009    constr:    0.0000
     atom:   10    charge:    0.8464    magn:    0.0023    constr:    0.0000
     atom:   11    charge:    0.8502    magn:   -0.0004    constr:    0.0000
     atom:   12    charge:    0.8552    magn:    0.0003    constr:    0.0000
     atom:   13    charge:    0.8545    magn:    0.0001    constr:    0.0000
     atom:   14    charge:    0.8527    magn:   -0.0001    constr:    0.0000
     atom:   15    charge:    0.8528    magn:    0.0012    constr:    0.0000
     atom:   16    charge:    0.8582    magn:    0.0047    constr:    0.0000
     atom:   17    charge:    0.8651    magn:    0.0107    constr:    0.0000
     atom:   18    charge:    0.8535    magn:    0.0027    constr:    0.0000
     atom:   19    charge:    0.8628    magn:    0.0049    constr:    0.0000
     atom:   20    charge:    0.8552    magn:    0.0003    constr:    0.0000
     atom:   21    charge:    0.8545    magn:    0.0009    constr:    0.0000
     atom:   22    charge:    0.8495    magn:    0.0001    constr:    0.0000
     atom:   23    charge:    0.8465    magn:   -0.0004    constr:    0.0000
     atom:   24    charge:    0.8431    magn:    0.0093    constr:    0.0000
     atom:   25    charge:    1.6233    magn:    0.2011    constr:    0.0000
     atom:   26    charge:    0.8535    magn:    0.0027    constr:    0.0000
     atom:   27    charge:    0.8502    magn:   -0.0004    constr:    0.0000
     atom:   28    charge:    0.8517    magn:    0.0003    constr:    0.0000
     atom:   29    charge:    0.8497    magn:    0.0008    constr:    0.0000
     atom:   30    charge:    0.8499    magn:    0.0009    constr:    0.0000
     atom:   31    charge:    0.8490    magn:    0.0053    constr:    0.0000
     atom:   32    charge:    0.8431    magn:    0.0093    constr:    0.0000
     atom:   33    charge:    0.8651    magn:    0.0107    constr:    0.0000
     atom:   34    charge:    0.8464    magn:    0.0023    constr:    0.0000
     atom:   35    charge:    0.8498    magn:   -0.0003    constr:    0.0000
     atom:   36    charge:    0.8489    magn:   -0.0003    constr:    0.0000
     atom:   37    charge:    0.8482    magn:    0.0004    constr:    0.0000
     atom:   38    charge:    0.8499    magn:    0.0009    constr:    0.0000
     atom:   39    charge:    0.8465    magn:   -0.0004    constr:    0.0000
     atom:   40    charge:    0.8582    magn:    0.0047    constr:    0.0000
     atom:   41    charge:    0.8539    magn:    0.0009    constr:    0.0000
     atom:   42    charge:    0.8490    magn:    0.0011    constr:    0.0000
     atom:   43    charge:    0.8490    magn:    0.0011    constr:    0.0000
     atom:   44    charge:    0.8489    magn:   -0.0003    constr:    0.0000
     atom:   45    charge:    0.8497    magn:    0.0008    constr:    0.0000
     atom:   46    charge:    0.8495    magn:    0.0001    constr:    0.0000
     atom:   47    charge:    0.8528    magn:    0.0012    constr:    0.0000
     atom:   48    charge:    0.8526    magn:    0.0007    constr:    0.0000
     atom:   49    charge:    0.8537    magn:    0.0000    constr:    0.0000
     atom:   50    charge:    2.6990    magn:   -0.0002    constr:    0.0000
     atom:   51    charge:    2.6973    magn:   -0.0003    constr:    0.0000
     atom:   52    charge:    2.6874    magn:    0.0022    constr:    0.0000
     atom:   53    charge:    2.6967    magn:    0.0038    constr:    0.0000
     atom:   54    charge:    2.6984    magn:   -0.0004    constr:    0.0000
     atom:   55    charge:    2.6908    magn:    0.0008    constr:    0.0000
     atom:   56    charge:    2.6935    magn:    0.0003    constr:    0.0000
     atom:   57    charge:    2.6941    magn:    0.0017    constr:    0.0000
     atom:   58    charge:    2.6945    magn:    0.0030    constr:    0.0000
     atom:   59    charge:    2.6853    magn:    0.0162    constr:    0.0000
     atom:   60    charge:    2.6871    magn:   -0.0168    constr:    0.0000
     atom:   61    charge:    2.6948    magn:    0.0140    constr:    0.0000
     atom:   62    charge:    2.6904    magn:    0.0099    constr:    0.0000
     atom:   63    charge:    2.6908    magn:    0.0008    constr:    0.0000
     atom:   64    charge:    2.6989    magn:    0.0000    constr:    0.0000
     atom:   65    charge:    2.6991    magn:    0.0045    constr:    0.0000
     atom:   66    charge:    2.6964    magn:   -0.0107    constr:    0.0000
     atom:   67    charge:    1.7369    magn:   -0.0777    constr:    0.0000
     atom:   68    charge:    2.6797    magn:    0.0963    constr:    0.0000
     atom:   69    charge:    2.6948    magn:    0.0140    constr:    0.0000
     atom:   70    charge:    2.6984    magn:   -0.0004    constr:    0.0000
     atom:   71    charge:    2.6978    magn:    0.0004    constr:    0.0000
     atom:   72    charge:    2.6929    magn:   -0.0004    constr:    0.0000
     atom:   73    charge:    2.6875    magn:    0.0078    constr:    0.0000
     atom:   74    charge:    2.6583    magn:    0.0907    constr:    0.0000
     atom:   75    charge:    1.7369    magn:   -0.0777    constr:    0.0000
     atom:   76    charge:    2.6871    magn:   -0.0168    constr:    0.0000
     atom:   77    charge:    2.6967    magn:    0.0038    constr:    0.0000
     atom:   78    charge:    2.6965    magn:   -0.0002    constr:    0.0000
     atom:   79    charge:    2.6926    magn:   -0.0001    constr:    0.0000
     atom:   80    charge:    2.6879    magn:    0.0048    constr:    0.0000
     atom:   81    charge:    2.6875    magn:    0.0078    constr:    0.0000
     atom:   82    charge:    2.6964    magn:   -0.0107    constr:    0.0000
     atom:   83    charge:    2.6853    magn:    0.0162    constr:    0.0000
     atom:   84    charge:    2.6874    magn:    0.0022    constr:    0.0000
     atom:   85    charge:    2.6944    magn:    0.0000    constr:    0.0000
     atom:   86    charge:    2.6938    magn:    0.0004    constr:    0.0000
     atom:   87    charge:    2.6926    magn:   -0.0001    constr:    0.0000
     atom:   88    charge:    2.6929    magn:   -0.0004    constr:    0.0000
     atom:   89    charge:    2.6991    magn:    0.0045    constr:    0.0000
     atom:   90    charge:    2.6945    magn:    0.0030    constr:    0.0000
     atom:   91    charge:    2.6973    magn:   -0.0003    constr:    0.0000
     atom:   92    charge:    2.7005    magn:    0.0005    constr:    0.0000
     atom:   93    charge:    2.6944    magn:    0.0000    constr:    0.0000
     atom:   94    charge:    2.6965    magn:   -0.0002    constr:    0.0000
     atom:   95    charge:    2.6978    magn:    0.0004    constr:    0.0000
     atom:   96    charge:    2.6989    magn:    0.0000    constr:    0.0000
     atom:   97    charge:    2.6941    magn:    0.0017    constr:    0.0000
     atom:   98    charge:    2.6990    magn:   -0.0002    constr:    0.0000

     total cpu time spent up to now is     1216.1 secs

     End of self-consistent calculation

 ------ SPIN UP ------------


          k = 0.0000 0.0000 0.0000 ( 77471 PWs)   bands (ev):

   -21.8160 -21.6250 -21.4001 -21.3893 -21.3815 -21.3023 -21.2860 -20.8779
   -20.6647 -20.6553 -20.6237 -20.5513 -20.5476 -20.4313 -20.2970 -20.2924
   -20.2796 -20.1308 -20.1072 -19.5929 -19.4207 -19.4074 -19.4004 -19.3953
   -19.3842 -19.3751 -19.3701 -19.3319 -19.3042 -19.1783 -19.1663 -19.0406
   -18.9768 -18.9740 -18.9518 -18.7691 -18.7677 -18.5545 -18.5467 -18.5261
   -18.5230 -18.4751 -18.4263 -18.4046 -18.3709 -18.3464 -18.3455 -16.7287
   -14.7393 -13.1281 -12.7795 -12.7737 -12.7495 -12.7223 -12.7172 -12.6554
   -12.5685 -12.5342 -12.5255 -12.4788 -12.4113 -12.1535 -12.0709 -12.0620
[...]
     atom:   55    charge:    2.6908    magn:    0.0008    constr:    0.0000
     atom:   56    charge:    2.6935    magn:    0.0003    constr:    0.0000
     atom:   57    charge:    2.6941    magn:    0.0017    constr:    0.0000
     atom:   58    charge:    2.6945    magn:    0.0030    constr:    0.0000
     atom:   59    charge:    2.6854    magn:    0.0162    constr:    0.0000
     atom:   60    charge:    2.6872    magn:   -0.0169    constr:    0.0000
     atom:   61    charge:    2.6949    magn:    0.0140    constr:    0.0000
     atom:   62    charge:    2.6905    magn:    0.0099    constr:    0.0000
     atom:   63    charge:    2.6908    magn:    0.0008    constr:    0.0000
     atom:   64    charge:    2.6990    magn:    0.0000    constr:    0.0000
     atom:   65    charge:    2.6991    magn:    0.0045    constr:    0.0000
     atom:   66    charge:    2.6965    magn:   -0.0107    constr:    0.0000
     atom:   67    charge:    1.7370    magn:   -0.0776    constr:    0.0000
     atom:   68    charge:    2.6798    magn:    0.0963    constr:    0.0000
     atom:   69    charge:    2.6949    magn:    0.0140    constr:    0.0000
     atom:   70    charge:    2.6985    magn:   -0.0004    constr:    0.0000
     atom:   71    charge:    2.6978    magn:    0.0004    constr:    0.0000
     atom:   72    charge:    2.6929    magn:   -0.0004    constr:    0.0000
     atom:   73    charge:    2.6877    magn:    0.0078    constr:    0.0000
     atom:   74    charge:    2.6584    magn:    0.0907    constr:    0.0000
     atom:   75    charge:    1.7370    magn:   -0.0776    constr:    0.0000
     atom:   76    charge:    2.6872    magn:   -0.0169    constr:    0.0000
     atom:   77    charge:    2.6967    magn:    0.0038    constr:    0.0000
     atom:   78    charge:    2.6965    magn:   -0.0002    constr:    0.0000
     atom:   79    charge:    2.6926    magn:   -0.0001    constr:    0.0000
     atom:   80    charge:    2.6880    magn:    0.0047    constr:    0.0000
     atom:   81    charge:    2.6877    magn:    0.0078    constr:    0.0000
     atom:   82    charge:    2.6965    magn:   -0.0107    constr:    0.0000
     atom:   83    charge:    2.6854    magn:    0.0162    constr:    0.0000
     atom:   84    charge:    2.6874    magn:    0.0022    constr:    0.0000
     atom:   85    charge:    2.6944    magn:   -0.0000    constr:    0.0000
     atom:   86    charge:    2.6938    magn:    0.0004    constr:    0.0000
     atom:   87    charge:    2.6926    magn:   -0.0001    constr:    0.0000
     atom:   88    charge:    2.6929    magn:   -0.0004    constr:    0.0000
     atom:   89    charge:    2.6991    magn:    0.0045    constr:    0.0000
     atom:   90    charge:    2.6945    magn:    0.0030    constr:    0.0000
     atom:   91    charge:    2.6974    magn:   -0.0003    constr:    0.0000
     atom:   92    charge:    2.7004    magn:    0.0005    constr:    0.0000
     atom:   93    charge:    2.6944    magn:   -0.0000    constr:    0.0000
     atom:   94    charge:    2.6965    magn:   -0.0002    constr:    0.0000
     atom:   95    charge:    2.6978    magn:    0.0004    constr:    0.0000
     atom:   96    charge:    2.6990    magn:    0.0000    constr:    0.0000
     atom:   97    charge:    2.6941    magn:    0.0017    constr:    0.0000
     atom:   98    charge:    2.6990    magn:   -0.0002    constr:    0.0000

     total cpu time spent up to now is     6314.7 secs

     End of self-consistent calculation

 ------ SPIN UP ------------


          k = 0.0000 0.0000 0.0000 ( 77467 PWs)   bands (ev):

   -21.8166 -21.6254 -21.4001 -21.3893 -21.3813 -21.3024 -21.2863 -20.8783
   -20.6647 -20.6554 -20.6237 -20.5513 -20.5475 -20.4311 -20.2972 -20.2926
   -20.2797 -20.1311 -20.1072 -19.5933 -19.4208 -19.4074 -19.4004 -19.3952
   -19.3842 -19.3750 -19.3701 -19.3319 -19.3042 -19.1786 -19.1664 -19.0405
   -18.9768 -18.9741 -18.9518 -18.7693 -18.7677 -18.5546 -18.5466 -18.5261
   -18.5232 -18.4751 -18.4262 -18.4044 -18.3708 -18.3465 -18.3455 -16.7290
   -14.7400 -13.1286 -12.7796 -12.7738 -12.7496 -12.7221 -12.7171 -12.6553
   -12.5685 -12.5342 -12.5255 -12.4789 -12.4115 -12.1536 -12.0709 -12.0620
   -12.0266 -11.9793 -11.9452 -11.5596 -11.4212 -11.4130 -11.3954 -11.3946
   -11.3722 -11.3697 -11.3616 -11.3167 -11.3004 -11.0764 -11.0469 -10.8760
   -10.7254 -10.7120 -10.6780 -10.6518 -10.5034 -10.0722 -10.0335 -10.0105
    -9.9376  -9.8782  -9.8181  -9.3997  -9.3376  -9.3218  -9.3139  -9.2917
    -9.2817  -9.2233  -9.0597  -8.9508  -8.9472  -8.9172  -8.9141  -8.9082
    -8.9020  -8.8899  -8.8819  -8.8641  -8.8359  -8.8307  -8.8273  -8.8262
    -8.8207  -8.7985  -8.7980  -8.7482  -8.7290  -8.7077  -8.6562  -8.6422
    -8.4699  -8.4531  -8.2227  -8.1928  -8.1924  -8.0926  -8.0855  -7.9885
    -7.8610  -7.8412  -7.8382  -7.7981  -7.7260  -7.7226  -7.5599  -7.5137
    -7.5042  -7.4776  -7.4756  -7.4559  -7.4432  -7.4077  -7.4040  -7.3567
    -7.3418  -7.3403  -7.3333  -7.2782  -7.2257  -7.2249  -7.1804  -7.0385
    -7.0306  -7.0004  -6.8934  -6.8148  -6.6531  -6.5346  -6.3016  -6.1958
    -6.1877  -6.1599  -6.0940  -6.0814  -6.0729  -6.0716  -6.0704  -6.0574
    -6.0510  -6.0477  -6.0318  -5.9751  -5.8695  -5.8151  -5.7976  -5.7010
    -5.5455  -5.4555  -5.4542  -5.4464  -5.3102  -5.2373  -5.1004  -5.0349
    -4.8038  -4.8029  -4.7815  -4.7637  -4.6804  -4.6711  -4.5747  -4.5224
    -4.5169  -4.5049  -4.3513  -3.0715  -0.0558   0.1760   0.6729   0.6758
     0.7064   0.7192   0.7259   0.7287   0.7765   0.7907   0.8042   0.8054
     0.8108   0.8260   0.8336   0.8521   0.8617   0.8916   0.9080   0.9336
     0.9606   1.1143   1.2116   1.2294   1.2327   1.2613   1.3106   1.3166
     1.3216   1.3263   1.3382   1.3578   1.3915   1.4353   1.4376   1.4409
     1.4495   1.4598   1.4834   1.8821   2.0568   2.0913   2.0946   2.1077
     2.1085   2.2632   2.2858   2.3159   2.3756

 ------ SPIN DOWN ----------


          k = 0.0000 0.0000 0.0000 ( 77467 PWs)   bands (ev):

   -21.7622 -21.5281 -21.3970 -21.3838 -21.3746 -21.2958 -21.2387 -20.8197
   -20.6576 -20.6371 -20.6230 -20.5469 -20.5319 -20.4147 -20.2891 -20.2865
   -20.2562 -20.1084 -20.0927 -19.5516 -19.4135 -19.4009 -19.3948 -19.3894
   -19.3796 -19.3727 -19.3578 -19.3111 -19.3018 -19.1607 -19.1563 -19.0306
   -18.9716 -18.9715 -18.9271 -18.7679 -18.7525 -18.5459 -18.5406 -18.5186
   -18.5063 -18.4691 -18.4155 -18.3972 -18.3683 -18.3402 -18.3291 -16.6064
   -14.8608 -13.0556 -12.7735 -12.7649 -12.7458 -12.7197 -12.7137 -12.6466
   -12.5624 -12.5276 -12.5204 -12.4688 -12.3993 -12.1421 -12.0622 -12.0529
   -12.0264 -11.9754 -11.9334 -11.5388 -11.4074 -11.4003 -11.3901 -11.3837
   -11.3690 -11.3575 -11.3572 -11.3066 -11.2888 -11.0830 -11.0341 -10.8571
   -10.7194 -10.7095 -10.6700 -10.6417 -10.4944 -10.0577 -10.0211  -9.9995
    -9.9269  -9.8731  -9.8117  -9.3872  -9.3108  -9.3031  -9.3011  -9.2882
    -9.2777  -9.2223  -9.0402  -8.9337  -8.9108  -8.9067  -8.9039  -8.8910
    -8.8848  -8.8763  -8.8558  -8.8431  -8.8280  -8.8256  -8.8232  -8.8099
    -8.8029  -8.7938  -8.7915  -8.7321  -8.7230  -8.6495  -8.6321  -8.5971
    -8.4688  -8.4507  -8.2200  -8.1913  -8.1900  -8.0826  -8.0744  -7.8612
    -7.8387  -7.8220  -7.7966  -7.7927  -7.7128  -7.6834  -7.5469  -7.5029
    -7.4958  -7.4740  -7.4538  -7.4416  -7.3999  -7.3996  -7.3838  -7.3364
    -7.3299  -7.3248  -7.2911  -7.2749  -7.2159  -7.1843  -7.1555  -7.0287
    -7.0277  -6.9960  -6.8820  -6.8076  -6.6569  -6.5451  -6.1895  -6.1820
    -6.1551  -6.1322  -6.0754  -6.0661  -6.0641  -6.0572  -6.0526  -6.0458
    -6.0371  -6.0209  -5.9822  -5.9591  -5.8240  -5.8197  -5.7880  -5.7111
    -5.4970  -5.4451  -5.4365  -5.4063  -5.2809  -5.2408  -5.1130  -5.0466
    -4.7805  -4.7703  -4.7460  -4.7449  -4.6675  -4.6560  -4.5523  -4.5127
    -4.4932  -4.4898  -4.1615  -3.3878   0.1845   0.4780   0.7060   0.7138
     0.7165   0.7331   0.7457   0.7527   0.7931   0.8054   0.8069   0.8080
     0.8142   0.8355   0.8538   0.8629   0.8804   0.9202   0.9401   0.9467
     1.0133   1.1688   1.2288   1.2559   1.2626   1.3111   1.3175   1.3177
     1.3225   1.3280   1.3460   1.3648   1.4186   1.4347   1.4368   1.4406
     1.4508   1.4607   1.4909   1.8885   2.0978   2.1020   2.1132   2.1246
     2.1528   2.1925   2.3261   2.3364   2.3923

     highest occupied, lowest unoccupied level (ev):    -4.3513   -4.1615

!    total energy              =   -1940.16902986 Ry
     Harris-Foulkes estimate   =   -1940.16902986 Ry
     estimated scf accuracy    <          4.0E-13 Ry

     total all-electron energy =     -7769.993507 Ry

     The total energy is the sum of the following terms:

     one-electron contribution =  -10644.25313425 Ry
     hartree contribution      =    5407.71605418 Ry
     xc contribution           =    -430.66219290 Ry
     ewald contribution        =    4370.47795465 Ry
     DFT-D3 Dispersion         =      -0.27013358 Ry
     one-center paw contrib.   =    -643.17757796 Ry

     total magnetization       =     1.00 Bohr mag/cell
     absolute magnetization    =     2.03 Bohr mag/cell

     convergence has been achieved in  26 iterations

     negative rho (up, down):  4.801E-01 8.275E-03

     Forces acting on atoms (cartesian axes, Ry/au):

     atom    1 type  1   force =     0.00000675   -0.00000994    0.00000000
     atom    2 type  1   force =     0.00000214   -0.00001210    0.00000000
     atom    3 type  1   force =    -0.00001833   -0.00000366    0.00000000
     atom    4 type  1   force =    -0.00001610    0.00001025    0.00000000
     atom    5 type  1   force =     0.00001111    0.00001384    0.00000000
     atom    6 type  1   force =     0.00001704    0.00000667    0.00000000
     atom    7 type  1   force =     0.00000660   -0.00000423    0.00000000
     atom    8 type  1   force =     0.00000246   -0.00000909    0.00000000
     atom    9 type  1   force =     0.00000298    0.00000227    0.00000000
     atom   10 type  1   force =     0.00000271    0.00000694    0.00000000
     atom   11 type  1   force =     0.00000857    0.00000871    0.00000000
     atom   12 type  1   force =     0.00000327    0.00000534    0.00000000
     atom   13 type  1   force =     0.00001074   -0.00000630    0.00000000
     atom   14 type  1   force =     0.00000264   -0.00001834    0.00000000
     atom   15 type  1   force =    -0.00000334   -0.00000984    0.00000000
     atom   16 type  1   force =    -0.00000797    0.00000518    0.00000000
     atom   17 type  1   force =    -0.00000509    0.00001340    0.00000000
     atom   18 type  1   force =     0.00000530   -0.00000129    0.00000000
     atom   19 type  1   force =     0.00001135   -0.00000677    0.00000000
     atom   20 type  1   force =    -0.00000331   -0.00000545    0.00000000
     atom   21 type  1   force =    -0.00000648   -0.00001657    0.00000000
     atom   22 type  1   force =    -0.00000662   -0.00000957    0.00000000
     atom   23 type  1   force =     0.00000788   -0.00000554    0.00000000
     atom   24 type  1   force =    -0.00001683    0.00000576    0.00000000
     atom   25 type  4   force =    -0.00000847    0.00000546    0.00000000
     atom   26 type  1   force =     0.00000328   -0.00000414    0.00000000
     atom   27 type  1   force =    -0.00000361   -0.00001157    0.00000000
     atom   28 type  1   force =    -0.00001708    0.00000905    0.00000000
     atom   29 type  1   force =    -0.00000600    0.00001406    0.00000000
     atom   30 type  1   force =     0.00002002   -0.00001093    0.00000000
     atom   31 type  1   force =     0.00000419   -0.00000265    0.00000000
     atom   32 type  1   force =    -0.00001353    0.00001134    0.00000000
     atom   33 type  1   force =    -0.00001398   -0.00000198    0.00000000
     atom   34 type  1   force =    -0.00000446   -0.00000531    0.00000000
     atom   35 type  1   force =    -0.00000586    0.00001806    0.00000000
     atom   36 type  1   force =    -0.00000588    0.00001622    0.00000000
     atom   37 type  1   force =    -0.00000257    0.00000146    0.00000000
     atom   38 type  1   force =     0.00001944   -0.00001189    0.00000000
     atom   39 type  1   force =     0.00000895   -0.00000406    0.00000000
     atom   40 type  1   force =    -0.00000806    0.00000477    0.00000000
     atom   41 type  1   force =    -0.00000008   -0.00000308    0.00000000
     atom   42 type  1   force =     0.00001193    0.00000429    0.00000000
     atom   43 type  1   force =     0.00001210   -0.00000714    0.00000000
     atom   44 type  1   force =    -0.00001713   -0.00000301    0.00000000
     atom   45 type  1   force =    -0.00001519   -0.00000178    0.00000000
     atom   46 type  1   force =     0.00000506    0.00001068    0.00000000
     atom   47 type  1   force =     0.00000711    0.00000808    0.00000000
     atom   48 type  1   force =     0.00000942    0.00000264    0.00000000
     atom   49 type  1   force =     0.00001205   -0.00000122    0.00000000
     atom   50 type  2   force =     0.00000637   -0.00000901    0.00000000
     atom   51 type  2   force =    -0.00000989   -0.00000336    0.00000000
     atom   52 type  2   force =    -0.00001553   -0.00000650    0.00000000
     atom   53 type  2   force =     0.00000064   -0.00001431    0.00000000
     atom   54 type  2   force =    -0.00000030   -0.00001049    0.00000000
     atom   55 type  2   force =    -0.00000903    0.00000899    0.00000000
     atom   56 type  2   force =    -0.00000109    0.00000087    0.00000000
     atom   57 type  2   force =    -0.00000211   -0.00000910    0.00000000
     atom   58 type  2   force =    -0.00000217   -0.00001253    0.00000000
     atom   59 type  2   force =    -0.00001847   -0.00000437    0.00000000
     atom   60 type  2   force =    -0.00001168   -0.00000626    0.00000000
     atom   61 type  2   force =     0.00000971   -0.00001231    0.00000000
     atom   62 type  2   force =     0.00000264   -0.00000142    0.00000000
     atom   63 type  2   force =    -0.00001229    0.00000349    0.00000000
     atom   64 type  2   force =    -0.00000709    0.00000262    0.00000000
     atom   65 type  2   force =     0.00000523   -0.00000491    0.00000000
     atom   66 type  2   force =    -0.00000553   -0.00000498    0.00000000
     atom   67 type  3   force =    -0.00001511    0.00000048    0.00000000
     atom   68 type  2   force =    -0.00000079    0.00000086    0.00000000
     atom   69 type  2   force =     0.00001592   -0.00000213    0.00000000
     atom   70 type  2   force =     0.00000909    0.00000542    0.00000000
     atom   71 type  2   force =     0.00000651    0.00000378    0.00000000
     atom   72 type  2   force =     0.00000134    0.00000184    0.00000000
     atom   73 type  2   force =     0.00000397   -0.00000198    0.00000000
     atom   74 type  2   force =    -0.00000815    0.00000495    0.00000000
     atom   75 type  5   force =    -0.00000783    0.00001201    0.00000000
     atom   76 type  2   force =    -0.00000031    0.00001319    0.00000000
     atom   77 type  2   force =     0.00001280    0.00000622    0.00000000
     atom   78 type  2   force =     0.00000491   -0.00000042    0.00000000
     atom   79 type  2   force =     0.00000430    0.00000011    0.00000000
     atom   80 type  2   force =     0.00000001    0.00000007    0.00000000
     atom   81 type  2   force =     0.00000369   -0.00000213    0.00000000
     atom   82 type  2   force =     0.00000129    0.00000729    0.00000000
     atom   83 type  2   force =    -0.00000580    0.00001761    0.00000000
     atom   84 type  2   force =    -0.00000250    0.00001614    0.00000000
     atom   85 type  2   force =     0.00000177    0.00000584    0.00000000
     atom   86 type  2   force =     0.00000439   -0.00000242    0.00000000
     atom   87 type  2   force =     0.00000210   -0.00000377    0.00000000
     atom   88 type  2   force =    -0.00000111   -0.00000212    0.00000000
     atom   89 type  2   force =     0.00000647   -0.00000233    0.00000000
     atom   90 type  2   force =     0.00000932    0.00000755    0.00000000
     atom   91 type  2   force =    -0.00000231    0.00000992    0.00000000
     atom   92 type  2   force =     0.00000671   -0.00000348    0.00000000
     atom   93 type  2   force =    -0.00000401   -0.00000437    0.00000000
     atom   94 type  2   force =     0.00000273   -0.00000421    0.00000000
     atom   95 type  2   force =    -0.00000013   -0.00000766    0.00000000
     atom   96 type  2   force =    -0.00000588    0.00000469    0.00000000
     atom   97 type  2   force =     0.00000685    0.00000626    0.00000000
     atom   98 type  2   force =     0.00001123   -0.00000074    0.00000000

     Total force =     0.000119     Total SCF correction =     0.000001


     Computing stress (Cartesian axis) and pressure


     negative rho (up, down):  4.801E-01 8.275E-03
          total   stress  (Ry/bohr**3)                   (kbar)     P=   -0.17
  -0.00000004   0.00000000   0.00000000         -0.01      0.00      0.00
   0.00000000  -0.00000004   0.00000000          0.00     -0.01      0.00
   0.00000000   0.00000000  -0.00000333          0.00      0.00     -0.49


     Writing output data file C2Cn.save/
 
     init_run     :     10.24s CPU     10.72s WALL (       2 calls)
     electrons    :   5866.16s CPU   5996.33s WALL (      12 calls)
     update_pot   :     34.31s CPU     34.63s WALL (      10 calls)
     forces       :     47.11s CPU     48.72s WALL (      12 calls)
     stress       :    146.18s CPU    147.67s WALL (      12 calls)

     Called by init_run:
     wfcinit      :      3.82s CPU      4.01s WALL (       2 calls)
     potinit      :      2.27s CPU      2.33s WALL (       2 calls)
     hinit0       :      3.19s CPU      3.26s WALL (       2 calls)

     Called by electrons:
     c_bands      :   5683.15s CPU   5768.15s WALL (     160 calls)
     sum_band     :     94.75s CPU     99.21s WALL (     160 calls)
     v_of_rho     :     30.87s CPU     32.04s WALL (     162 calls)
     newd         :     10.37s CPU     13.33s WALL (     162 calls)
     PAW_pot      :     34.81s CPU     35.26s WALL (     172 calls)
     mix_rho      :      2.59s CPU      3.06s WALL (     160 calls)

     Called by c_bands:
     init_us_2    :      6.09s CPU      6.34s WALL (     712 calls)
     rcgdiagg     :   5510.83s CPU   5564.79s WALL (     344 calls)
     wfcrot       :    170.42s CPU    174.23s WALL (     304 calls)

     Called by sum_band:
     sum_band:bec :      0.23s CPU      0.23s WALL (     340 calls)
     addusdens    :     11.24s CPU     14.43s WALL (     160 calls)

     Called by *cgdiagg:
     h_psi        :   2855.39s CPU   2884.42s WALL (  240972 calls)
     s_psi        :   1602.95s CPU   1618.88s WALL (  481640 calls)
     rdiaghg      :      5.27s CPU      5.48s WALL (     304 calls)

     Called by h_psi:
     h_psi:pot    :   2852.28s CPU   2881.25s WALL (  240972 calls)
     h_psi:calbec :    995.71s CPU   1005.08s WALL (  240972 calls)
     vloc_psi     :   1008.07s CPU   1021.44s WALL (  240972 calls)
     add_vuspsi   :    845.21s CPU    852.25s WALL (  240972 calls)
     hs_1psi      :   3519.05s CPU   3553.03s WALL (  240668 calls)
     s_1psi       :   1648.20s CPU   1663.92s WALL (  240668 calls)

     General routines
     calbec       :   1858.92s CPU   1878.43s WALL (  482100 calls)
     fft          :     25.58s CPU     26.02s WALL (    3156 calls)
     ffts         :      1.20s CPU      1.23s WALL (     320 calls)
     fftw         :    955.00s CPU    967.56s WALL (  596064 calls)
 
     Parallel routines
     fft_scatt_xy :     91.55s CPU     92.49s WALL (  599540 calls)
     fft_scatt_yz :    284.80s CPU    289.27s WALL (  599540 calls)
 
     PWSCF        :      1h41m CPU      1h45m WALL

 
   This run was terminated on:  23:22: 2   1Jul2021            

=------------------------------------------------------------------------------=
   JOB DONE.
=------------------------------------------------------------------------------=
