
     Program PWSCF v.6.4.1 starts on 21Sep2021 at  0:43:36 

     This program is part of the open-source Quantum ESPRESSO suite
     for quantum simulation of materials; please cite
         "P. Giannozzi et al., J. Phys.:Condens. Matter 21 395502 (2009);
         "P. Giannozzi et al., J. Phys.:Condens. Matter 29 465901 (2017);
          URL http://www.quantum-espresso.org", 
     in publications or presentations arising from this work. More details at
     http://www.quantum-espresso.org/quote

     Parallel version (MPI), running on    64 processors

     MPI processes distributed on     2 nodes
     R & G space division:  proc/nbgrp/npool/nimage =      64
     Waiting for input...
     Reading input from standard input

     Current dimensions of program PWSCF are:
     Max number of different atomic species (ntypx) = 10
     Max number of k-points (npk) =  40000
     Max angular momentum in pseudopotentials (lmaxx) =  3

     IMPORTANT: XC functional enforced from input :
     Exchange-correlation      = HSE ( 1  4 12  4 0 0)
     EXX-fraction              =        0.25
     Using LIBXC version       =    4   3   4
     Any further DFT definition will be discarded
     Please, verify this is what you really want

               file N.pbe-n-kjpaw_psl.1.0.0.UPF: wavefunction(s)  2S renormalized
               file C.pbe-n-kjpaw_psl.1.0.0.UPF: wavefunction(s)  2S 2P renormalized
               file C.pbe-n-kjpaw_psl.1.0.0.UPF: wavefunction(s)  2S 2P renormalized
               file C.pbe-n-kjpaw_psl.1.0.0.UPF: wavefunction(s)  2S 2P renormalized
     EXX fraction changed:   0.32
     EXX Screening parameter changed:    0.0455000

     --------------------------------------------
     Parameters for DFT-D3 Dispersion Correction:
     --------------------------------------------
       Reference C6 values for interpolation: 

         atom   Coordination number   C6
         B          0.000           214.36
         B          0.971           150.74
         B          1.944           106.23
         B          2.913            62.89
         B          4.586            56.06
         C1         0.000            98.23
         C1         0.987            86.49
         C1         1.998            58.72
         C1         2.999            51.56
         C1         3.984            36.41
         C2         0.000            98.23
         C2         0.987            86.49
         C2         1.998            58.72
         C2         2.999            51.56
         C2         3.984            36.41
         C3         0.000            98.23
         C3         0.987            86.49
         C3         1.998            58.72
         C3         2.999            51.56
         C3         3.984            36.41
         N          0.000            50.54
         N          0.994            44.25
         N          2.014            39.35
         N          2.990            31.16

       Values used:

         atom   Coordination number  R0_AB[au]  C6      C8
         B          3.325            3.039     62.90   2506.24
         B          3.317            3.039     62.90   2506.44
         B          3.317            3.039     62.90   2506.43
         B          3.325            3.039     62.90   2506.25
         B          3.327            3.039     62.90   2506.21
         B          3.324            3.039     62.90   2506.27
         B          3.326            3.039     62.90   2506.22
         B          3.325            3.039     62.90   2506.26
         B          3.323            3.039     62.90   2506.30
         B          3.303            3.039     62.91   2506.76
         B          3.322            3.039     62.90   2506.33
         B          3.329            3.039     62.90   2506.15
         B          3.325            3.039     62.90   2506.24
         B          3.324            3.039     62.90   2506.27
         B          3.325            3.039     62.90   2506.26
         B          3.327            3.039     62.90   2506.21
         B          3.297            3.039     62.91   2506.88
         B          3.297            3.039     62.91   2506.90
         B          3.336            3.039     62.89   2505.99
         B          3.329            3.039     62.90   2506.15
         B          3.327            3.039     62.90   2506.21
         B          3.323            3.039     62.90   2506.31
         B          3.319            3.039     62.90   2506.40
         B          3.314            3.039     62.90   2506.51
         C2         3.249            2.750     49.43   1429.56
         B          3.297            3.039     62.91   2506.90
         B          3.322            3.039     62.90   2506.33
         B          3.325            3.039     62.90   2506.25
         B          3.321            3.039     62.90   2506.36
         B          3.319            3.039     62.90   2506.39
         B          3.315            3.039     62.90   2506.50
         B          3.314            3.039     62.90   2506.51
         B          3.297            3.039     62.91   2506.88
         B          3.303            3.039     62.91   2506.76
         B          3.317            3.039     62.90   2506.43
         B          3.316            3.039     62.90   2506.45
         B          3.318            3.039     62.90   2506.42
         B          3.319            3.039     62.90   2506.39
         B          3.319            3.039     62.90   2506.40
         B          3.327            3.039     62.90   2506.21
         B          3.323            3.039     62.90   2506.30
         B          3.317            3.039     62.90   2506.44
         B          3.319            3.039     62.90   2506.40
         B          3.316            3.039     62.90   2506.45
         B          3.321            3.039     62.90   2506.36
         B          3.323            3.039     62.90   2506.31
         B          3.325            3.039     62.90   2506.26
         B          3.325            3.039     62.90   2506.26
         B          3.325            3.039     62.90   2506.24
         N          3.129            2.478     31.22    688.74
         N          3.128            2.478     31.22    688.75
         N          3.125            2.478     31.22    688.79
         N          3.128            2.478     31.22    688.75
         N          3.130            2.478     31.22    688.73
         N          3.129            2.478     31.22    688.75
         N          3.129            2.478     31.22    688.75
         N          3.129            2.478     31.22    688.75
         N          3.129            2.478     31.22    688.74
         N          3.124            2.478     31.22    688.79
         N          3.123            2.478     31.22    688.80
         N          3.132            2.478     31.22    688.72
         N          3.130            2.478     31.22    688.74
         N          3.129            2.478     31.22    688.75
         N          3.130            2.478     31.22    688.74
         N          3.129            2.478     31.22    688.74
         N          3.132            2.478     31.22    688.71
         C1         3.192            2.750     50.14   1450.24
         N          3.134            2.478     31.22    688.70
         N          3.132            2.478     31.22    688.72
         N          3.130            2.478     31.22    688.73
         N          3.129            2.478     31.22    688.75
         N          3.127            2.478     31.22    688.76
         N          3.126            2.478     31.22    688.78
         N          3.155            2.478     31.21    688.52
         C3         3.192            2.750     50.14   1450.24
         N          3.123            2.478     31.22    688.80
         N          3.128            2.478     31.22    688.75
         N          3.127            2.478     31.22    688.77
         N          3.127            2.478     31.22    688.76
         N          3.127            2.478     31.22    688.77
         N          3.126            2.478     31.22    688.78
         N          3.132            2.478     31.22    688.71
         N          3.124            2.478     31.22    688.79
         N          3.125            2.478     31.22    688.79
         N          3.126            2.478     31.22    688.77
         N          3.126            2.478     31.22    688.77
         N          3.127            2.478     31.22    688.76
         N          3.127            2.478     31.22    688.76
         N          3.129            2.478     31.22    688.74
         N          3.129            2.478     31.22    688.74
         N          3.128            2.478     31.22    688.75
         N          3.129            2.478     31.22    688.74
         N          3.126            2.478     31.22    688.77
         N          3.127            2.478     31.22    688.77
         N          3.129            2.478     31.22    688.75
         N          3.130            2.478     31.22    688.74
         N          3.129            2.478     31.22    688.75
         N          3.129            2.478     31.22    688.74

         Molecular C6 ( Ry / a.u.^6 ) =    437698.51


     gamma-point specific algorithms are used
     Message from routine setup :
     BEWARE: nonlinear core correction is not consistent with hybrid XC

     Subspace diagonalization in iterative solution of the eigenvalue problem:
     one sub-group per band group will be used
     scalapack distributed-memory algorithm (size of sub-group:  5*  5 procs)

     EXX: grid of k+q points same as grid of k-points
 
     Parallelization info
     --------------------
     sticks:   dense  smooth     PW     G-vecs:    dense   smooth      PW
     Min          46      46     10                 2402     2402     286
     Max          48      48     12                 2424     2424     312
     Sum        3049    3049    757               154657   154657   19331
 


     bravais-lattice index     =            0
     lattice parameter (alat)  =      33.2346  a.u.
     unit-cell volume          =   36184.4017 (a.u.)^3
     number of atoms/cell      =           98
     number of atomic types    =            5
     number of electrons       =       391.00
     number of Kohn-Sham states=          245
     kinetic-energy cutoff     =      10.0000  Ry
     charge density cutoff     =      40.0000  Ry
     cutoff for Fock operator  =      40.0000  Ry
     convergence threshold     =      1.0E-06
     mixing beta               =       0.7000
     number of iterations used =            8  plain     mixing
     Exchange-correlation      = HSE ( 1  4 12  4 0 0)
     EXX-fraction              =        0.32
     Using LIBXC version       =    4   3   4

     celldm(1)=  33.234611  celldm(2)=   0.000000  celldm(3)=   0.000000
     celldm(4)=   0.000000  celldm(5)=   0.000000  celldm(6)=   0.000000

     crystal axes: (cart. coord. in units of alat)
               a(1) = (   1.000640  -0.000349   0.000000 )  
               a(2) = (  -0.500622   0.866405   0.000000 )  
               a(3) = (   0.000000   0.000000   1.137204 )  

     reciprocal axes: (cart. coord. in units 2 pi/alat)
               b(1) = (  0.999562  0.577562  0.000000 )  
               b(2) = (  0.000402  1.154427  0.000000 )  
               b(3) = (  0.000000  0.000000  0.879350 )  


     PseudoPot. # 1 for B  read from file:
     ./pseudo/B.pbe-n-kjpaw_psl.1.0.0.UPF
     MD5 check sum: 8c825a5969375aca5c2c6ad5945b3059
     Pseudo is Projector augmented-wave + core cor, Zval =  3.0
     Generated using "atomic" code by A. Dal Corso v.6.3
     Shape of augmentation charge: PSQ
     Using radial grid of 1059 points,  4 beta functions with: 
                l(1) =   0
                l(2) =   0
                l(3) =   1
                l(4) =   1
     Q(r) pseudized with 0 coefficients 


     PseudoPot. # 2 for N  read from file:
     ./pseudo/N.pbe-n-kjpaw_psl.1.0.0.UPF
     MD5 check sum: 14c48229446f9f2d411169a3abcbc3fa
     Pseudo is Projector augmented-wave + core cor, Zval =  5.0
     Generated using "atomic" code by A. Dal Corso v.6.3
     Shape of augmentation charge: PSQ
     Using radial grid of 1085 points,  4 beta functions with: 
                l(1) =   0
                l(2) =   0
                l(3) =   1
                l(4) =   1
     Q(r) pseudized with 0 coefficients 


     PseudoPot. # 3 for C  read from file:
     ./pseudo/C.pbe-n-kjpaw_psl.1.0.0.UPF
     MD5 check sum: 5f16ad9a65e90284d1d834d4ab3b0f7d
     Pseudo is Projector augmented-wave + core cor, Zval =  4.0
     Generated using "atomic" code by A. Dal Corso v.6.3
     Shape of augmentation charge: PSQ
     Using radial grid of 1073 points,  4 beta functions with: 
                l(1) =   0
                l(2) =   0
                l(3) =   1
                l(4) =   1
     Q(r) pseudized with 0 coefficients 


     PseudoPot. # 4 for C  read from file:
     ./pseudo/C.pbe-n-kjpaw_psl.1.0.0.UPF
     MD5 check sum: 5f16ad9a65e90284d1d834d4ab3b0f7d
     Pseudo is Projector augmented-wave + core cor, Zval =  4.0
     Generated using "atomic" code by A. Dal Corso v.6.3
     Shape of augmentation charge: PSQ
     Using radial grid of 1073 points,  4 beta functions with: 
                l(1) =   0
                l(2) =   0
                l(3) =   1
                l(4) =   1
     Q(r) pseudized with 0 coefficients 


     PseudoPot. # 5 for C  read from file:
     ./pseudo/C.pbe-n-kjpaw_psl.1.0.0.UPF
     MD5 check sum: 5f16ad9a65e90284d1d834d4ab3b0f7d
     Pseudo is Projector augmented-wave + core cor, Zval =  4.0
     Generated using "atomic" code by A. Dal Corso v.6.3
     Shape of augmentation charge: PSQ
     Using radial grid of 1073 points,  4 beta functions with: 
                l(1) =   0
                l(2) =   0
                l(3) =   1
                l(4) =   1
     Q(r) pseudized with 0 coefficients 


     atomic species   valence    mass     pseudopotential
        B              3.00    10.00000     B ( 1.00)
        N              5.00    14.00000     N ( 1.00)
        C1             4.00    12.00000     C ( 1.00)
        C2             4.00    12.00000     C ( 1.00)
        C3             4.00    12.00000     C ( 1.00)

     Starting magnetic structure 
     atomic species   magnetization
        B            0.000
        N            0.000
        C1           1.000
        C2           0.000
        C3           0.000

     No symmetry found



   Cartesian axes

     site n.     atom                  positions (alat units)
         1           B   tau(   1) = (  -0.0000233   0.0821617   0.5686018  )
         2           B   tau(   2) = (  -0.0713866   0.2062009   0.5686018  )
         3           B   tau(   3) = (  -0.1430783   0.3301031   0.5686018  )
         4           B   tau(   4) = (  -0.2149375   0.4537632   0.5686018  )
         5           B   tau(   5) = (  -0.2861755   0.5775434   0.5686018  )
         6           B   tau(   6) = (  -0.3574872   0.7014372   0.5686018  )
         7           B   tau(   7) = (  -0.4290711   0.8250953   0.5686018  )
         8           B   tau(   8) = (   0.1428779   0.0818580   0.5686018  )
         9           B   tau(   9) = (   0.0712222   0.2053694   0.5686018  )
        10           B   tau(  10) = (   0.0002327   0.3301362   0.5686018  )
        11           B   tau(  11) = (  -0.0725304   0.4539838   0.5686018  )
        12           B   tau(  12) = (  -0.1441451   0.5777657   0.5686018  )
        13           B   tau(  13) = (  -0.2149187   0.7014543   0.5686018  )
        14           B   tau(  14) = (  -0.2861881   0.8249309   0.5686018  )
        15           B   tau(  15) = (   0.2862131   0.0818140   0.5686018  )
        16           B   tau(  16) = (   0.2148456   0.2045690   0.5686018  )
        17           B   tau(  17) = (   0.1436176   0.3272083   0.5686018  )
        18           B   tau(  18) = (   0.0696289   0.4562046   0.5686018  )
        19           B   tau(  19) = (  -0.0025925   0.5788678   0.5686018  )
        20           B   tau(  20) = (  -0.0724144   0.7020070   0.5686018  )
        21           B   tau(  21) = (  -0.1432370   0.8251201   0.5686018  )
        22           B   tau(  22) = (   0.4289841   0.0823577   0.5686018  )
        23           B   tau(  23) = (   0.3574544   0.2061244   0.5686018  )
        24           B   tau(  24) = (   0.2853662   0.3296798   0.5686018  )
        25           C2  tau(  25) = (   0.2152526   0.4530948   0.5686018  )
        26           B   tau(  26) = (   0.1397476   0.5776538   0.5686018  )
        27           B   tau(  27) = (   0.0705912   0.7018778   0.5686018  )
        28           B   tau(  28) = (  -0.0004212   0.8253162   0.5686018  )
        29           B   tau(  29) = (   0.5717760   0.0822445   0.5686018  )
        30           B   tau(  30) = (   0.5003561   0.2060412   0.5686018  )
        31           B   tau(  31) = (   0.4287233   0.3298475   0.5686018  )
        32           B   tau(  32) = (   0.3571899   0.4540822   0.5686018  )
        33           B   tau(  33) = (   0.2884561   0.5780758   0.5686018  )
        34           B   tau(  34) = (   0.2142280   0.7007869   0.5686018  )
        35           B   tau(  35) = (   0.1426011   0.8249144   0.5686018  )
        36           B   tau(  36) = (   0.7147681   0.0821485   0.5686018  )
        37           B   tau(  37) = (   0.6432419   0.2059952   0.5686018  )
        38           B   tau(  38) = (   0.5717591   0.3297149   0.5686018  )
        39           B   tau(  39) = (   0.5002362   0.4534298   0.5686018  )
        40           B   tau(  40) = (   0.4302789   0.5777103   0.5686018  )
        41           B   tau(  41) = (   0.3577740   0.7016916   0.5686018  )
        42           B   tau(  42) = (   0.2857495   0.8247786   0.5686018  )
        43           B   tau(  43) = (   0.8578476   0.0820925   0.5686018  )
        44           B   tau(  44) = (   0.7862593   0.2059749   0.5686018  )
        45           B   tau(  45) = (   0.7146801   0.3297618   0.5686018  )
        46           B   tau(  46) = (   0.6431861   0.4533666   0.5686018  )
        47           B   tau(  47) = (   0.5722715   0.5772817   0.5686018  )
        48           B   tau(  48) = (   0.5005658   0.7013916   0.5686018  )
        49           B   tau(  49) = (   0.4288522   0.8249958   0.5686018  )
        50           N   tau(  50) = (   0.0714331   0.0409759   0.5686018  )
        51           N   tau(  51) = (  -0.0001876   0.1644906   0.5686018  )
        52           N   tau(  52) = (  -0.0713557   0.2888776   0.5686018  )
        53           N   tau(  53) = (  -0.1436341   0.4125195   0.5686018  )
        54           N   tau(  54) = (  -0.2151393   0.5362333   0.5686018  )
        55           N   tau(  55) = (  -0.2862233   0.6600795   0.5686018  )
        56           N   tau(  56) = (  -0.3576342   0.7838513   0.5686018  )
        57           N   tau(  57) = (   0.2145160   0.0409095   0.5686018  )
        58           N   tau(  58) = (   0.1429488   0.1642146   0.5686018  )
        59           N   tau(  59) = (   0.0713660   0.2876061   0.5686018  )
        60           N   tau(  60) = (  -0.0007870   0.4130708   0.5686018  )
        61           N   tau(  61) = (  -0.0731783   0.5365814   0.5686018  )
        62           N   tau(  62) = (  -0.1436888   0.6603299   0.5686018  )
        63           N   tau(  63) = (  -0.2147393   0.7838935   0.5686018  )
        64           N   tau(  64) = (   0.3576142   0.0410192   0.5686018  )
        65           N   tau(  65) = (   0.2863754   0.1641474   0.5686018  )
        66           N   tau(  66) = (   0.2150130   0.2867948   0.5686018  )
        67           C1  tau(  67) = (   0.1457790   0.4134614   0.5686018  )
        68           N   tau(  68) = (   0.0679304   0.5381514   0.5686018  )
        69           N   tau(  69) = (  -0.0012643   0.6611402   0.5686018  )
        70           N   tau(  70) = (  -0.0719434   0.7842561   0.5686018  )
        71           N   tau(  71) = (   0.5003317   0.0412613   0.5686018  )
        72           N   tau(  72) = (   0.4288916   0.1649165   0.5686018  )
        73           N   tau(  73) = (   0.3571532   0.2888803   0.5686018  )
        74           N   tau(  74) = (   0.2850449   0.4128002   0.5686018  )
        75           C3  tau(  75) = (   0.2148394   0.5330775   0.5686018  )
        76           N   tau(  76) = (   0.1418947   0.6602027   0.5686018  )
        77           N   tau(  77) = (   0.0709485   0.7841876   0.5686018  )
        78           N   tau(  78) = (   0.6432797   0.0409898   0.5686018  )
        79           N   tau(  79) = (   0.5717930   0.1647678   0.5686018  )
        80           N   tau(  80) = (   0.5002145   0.2885720   0.5686018  )
        81           N   tau(  81) = (   0.4284168   0.4123125   0.5686018  )
        82           N   tau(  82) = (   0.3591528   0.5364523   0.5686018  )
        83           N   tau(  83) = (   0.2866267   0.6604486   0.5686018  )
        84           N   tau(  84) = (   0.2141647   0.7834136   0.5686018  )
        85           N   tau(  85) = (   0.7862879   0.0408973   0.5686018  )
        86           N   tau(  86) = (   0.7147525   0.1647085   0.5686018  )
        87           N   tau(  87) = (   0.6432213   0.2884853   0.5686018  )
        88           N   tau(  88) = (   0.5716419   0.4121672   0.5686018  )
        89           N   tau(  89) = (   0.5010498   0.5359745   0.5686018  )
        90           N   tau(  90) = (   0.4292784   0.6601520   0.5686018  )
        91           N   tau(  91) = (   0.3574711   0.7839737   0.5686018  )
        92           N   tau(  92) = (   0.9292454   0.0408710   0.5686018  )
        93           N   tau(  93) = (   0.8577438   0.1646625   0.5686018  )
        94           N   tau(  94) = (   0.7861596   0.2884650   0.5686018  )
        95           N   tau(  95) = (   0.7144506   0.4121259   0.5686018  )
        96           N   tau(  96) = (   0.6433014   0.5358440   0.5686018  )
        97           N   tau(  97) = (   0.5718474   0.6598256   0.5686018  )
        98           N   tau(  98) = (   0.5002484   0.7837058   0.5686018  )

     number of k points=     1
                       cart. coord. in units 2pi/alat
        k(    1) = (   0.0000000   0.0000000   0.0000000), wk =   1.0000000

     Dense  grid:    77329 G-vectors     FFT dimensions: (  72,  72,  80)

     Occupations read from input 

      Spin-up

        1.0000   1.0000   1.0000   1.0000   1.0000   1.0000   1.0000   1.0000
        1.0000   1.0000   1.0000   1.0000   1.0000   1.0000   1.0000   1.0000
        1.0000   1.0000   1.0000   1.0000   1.0000   1.0000   1.0000   1.0000
        1.0000   1.0000   1.0000   1.0000   1.0000   1.0000   1.0000   1.0000
        1.0000   1.0000   1.0000   1.0000   1.0000   1.0000   1.0000   1.0000
        1.0000   1.0000   1.0000   1.0000   1.0000   1.0000   1.0000   1.0000
        1.0000   1.0000   1.0000   1.0000   1.0000   1.0000   1.0000   1.0000
        1.0000   1.0000   1.0000   1.0000   1.0000   1.0000   1.0000   1.0000
        1.0000   1.0000   1.0000   1.0000   1.0000   1.0000   1.0000   1.0000
        1.0000   1.0000   1.0000   1.0000   1.0000   1.0000   1.0000   1.0000
        1.0000   1.0000   1.0000   1.0000   1.0000   1.0000   1.0000   1.0000
        1.0000   1.0000   1.0000   1.0000   1.0000   1.0000   1.0000   1.0000
        1.0000   1.0000   1.0000   1.0000   1.0000   1.0000   1.0000   1.0000
        1.0000   1.0000   1.0000   1.0000   1.0000   1.0000   1.0000   1.0000
        1.0000   1.0000   1.0000   1.0000   1.0000   1.0000   1.0000   1.0000
        1.0000   1.0000   1.0000   1.0000   1.0000   1.0000   1.0000   1.0000
        1.0000   1.0000   1.0000   1.0000   1.0000   1.0000   1.0000   1.0000
        1.0000   1.0000   1.0000   1.0000   1.0000   1.0000   1.0000   1.0000
        1.0000   1.0000   1.0000   1.0000   1.0000   1.0000   1.0000   1.0000
        1.0000   1.0000   1.0000   1.0000   1.0000   1.0000   1.0000   1.0000
        1.0000   1.0000   1.0000   1.0000   1.0000   1.0000   1.0000   1.0000
        1.0000   1.0000   1.0000   1.0000   1.0000   1.0000   1.0000   1.0000
        1.0000   1.0000   1.0000   1.0000   1.0000   1.0000   1.0000   1.0000
        1.0000   1.0000   1.0000   1.0000   1.0000   1.0000   1.0000   1.0000
        1.0000   1.0000   1.0000   1.0000   0.0000   0.0000   0.0000   0.0000
        0.0000   0.0000   0.0000   0.0000   0.0000   0.0000   0.0000   0.0000
        0.0000   0.0000   0.0000   0.0000   0.0000   0.0000   0.0000   0.0000
        0.0000   0.0000   0.0000   0.0000   0.0000   0.0000   0.0000   0.0000
        0.0000   0.0000   0.0000   0.0000   0.0000   0.0000   0.0000   0.0000
        0.0000   0.0000   0.0000   0.0000   0.0000   0.0000   0.0000   0.0000
        0.0000   0.0000   0.0000   0.0000   0.0000

      Spin-down

        1.0000   1.0000   1.0000   1.0000   1.0000   1.0000   1.0000   1.0000
        1.0000   1.0000   1.0000   1.0000   1.0000   1.0000   1.0000   1.0000
        1.0000   1.0000   1.0000   1.0000   1.0000   1.0000   1.0000   1.0000
        1.0000   1.0000   1.0000   1.0000   1.0000   1.0000   1.0000   1.0000
        1.0000   1.0000   1.0000   1.0000   1.0000   1.0000   1.0000   1.0000
        1.0000   1.0000   1.0000   1.0000   1.0000   1.0000   1.0000   1.0000
        1.0000   1.0000   1.0000   1.0000   1.0000   1.0000   1.0000   1.0000
        1.0000   1.0000   1.0000   1.0000   1.0000   1.0000   1.0000   1.0000
        1.0000   1.0000   1.0000   1.0000   1.0000   1.0000   1.0000   1.0000
        1.0000   1.0000   1.0000   1.0000   1.0000   1.0000   1.0000   1.0000
        1.0000   1.0000   1.0000   1.0000   1.0000   1.0000   1.0000   1.0000
        1.0000   1.0000   1.0000   1.0000   1.0000   1.0000   1.0000   1.0000
        1.0000   1.0000   1.0000   1.0000   1.0000   1.0000   1.0000   1.0000
        1.0000   1.0000   1.0000   1.0000   1.0000   1.0000   1.0000   1.0000
        1.0000   1.0000   1.0000   1.0000   1.0000   1.0000   1.0000   1.0000
        1.0000   1.0000   1.0000   1.0000   1.0000   1.0000   1.0000   1.0000
        1.0000   1.0000   1.0000   1.0000   1.0000   1.0000   1.0000   1.0000
        1.0000   1.0000   1.0000   1.0000   1.0000   1.0000   1.0000   1.0000
        1.0000   1.0000   1.0000   1.0000   1.0000   1.0000   1.0000   1.0000
        1.0000   1.0000   1.0000   1.0000   1.0000   1.0000   1.0000   1.0000
        1.0000   1.0000   1.0000   1.0000   1.0000   1.0000   1.0000   1.0000
        1.0000   1.0000   1.0000   1.0000   1.0000   1.0000   1.0000   1.0000
        1.0000   1.0000   1.0000   1.0000   1.0000   1.0000   1.0000   1.0000
        1.0000   1.0000   1.0000   1.0000   1.0000   1.0000   1.0000   1.0000
        1.0000   1.0000   1.0000   0.0000   0.0000   0.0000   0.0000   0.0000
        0.0000   0.0000   0.0000   0.0000   0.0000   0.0000   0.0000   0.0000
        0.0000   0.0000   0.0000   0.0000   0.0000   0.0000   0.0000   0.0000
        0.0000   0.0000   0.0000   0.0000   0.0000   0.0000   0.0000   0.0000
        0.0000   0.0000   0.0000   0.0000   0.0000   0.0000   0.0000   0.0000
        0.0000   0.0000   0.0000   0.0000   0.0000   0.0000   0.0000   0.0000
        0.0000   0.0000   0.0000   0.0000   0.0000

     Estimated max dynamical RAM per process >      43.51 MB

     Estimated total dynamical RAM >       2.72 GB
     Generating pointlists ...
     new r_m :   0.0336 (alat units)  1.1164 (a.u.) for type    1
     new r_m :   0.0332 (alat units)  1.1048 (a.u.) for type    2
     new r_m :   0.0330 (alat units)  1.0965 (a.u.) for type    3
     new r_m :   0.0330 (alat units)  1.0965 (a.u.) for type    4
     new r_m :   0.0330 (alat units)  1.0965 (a.u.) for type    5

     Check: negative core charge=   -0.001026

     Initial potential from superposition of free atoms

     starting charge  390.98597, renormalised to  391.00000

     negative rho (up, down):  4.892E+00 7.072E-03
     Starting wfcs are  392 randomized atomic wfcs

     total cpu time spent up to now is        3.3 secs

     Self-consistent Calculation

     iteration #  1     ecut=    10.00 Ry     beta= 0.70
     CG style diagonalization
     ethr =  1.00E-02,  avg # of iterations =  3.3

     negative rho (up, down):  1.223E+01 2.144E-03

     total cpu time spent up to now is        8.0 secs

     total energy              =   -1868.46107421 Ry
     Harris-Foulkes estimate   =   -1873.19832128 Ry
     estimated scf accuracy    <      15.19170743 Ry

     total magnetization       =     1.00 Bohr mag/cell
     absolute magnetization    =     1.54 Bohr mag/cell

     iteration #  2     ecut=    10.00 Ry     beta= 0.70
     CG style diagonalization
     ethr =  3.89E-03,  avg # of iterations =  3.6

     negative rho (up, down):  1.416E+01 2.411E-03

     total cpu time spent up to now is       10.9 secs

     total energy              =   -1869.86942461 Ry
     Harris-Foulkes estimate   =   -1871.09933532 Ry
     estimated scf accuracy    <       2.56991059 Ry

     total magnetization       =     1.00 Bohr mag/cell
     absolute magnetization    =     1.37 Bohr mag/cell

     iteration #  3     ecut=    10.00 Ry     beta= 0.70
     CG style diagonalization
     ethr =  6.57E-04,  avg # of iterations =  4.5

     negative rho (up, down):  1.498E+01 1.644E-03

     total cpu time spent up to now is       14.8 secs

     total energy              =   -1869.88618568 Ry
     Harris-Foulkes estimate   =   -1870.91607781 Ry
     estimated scf accuracy    <       1.91049217 Ry

     total magnetization       =     1.00 Bohr mag/cell
     absolute magnetization    =     1.36 Bohr mag/cell

     iteration #  4     ecut=    10.00 Ry     beta= 0.70
     CG style diagonalization
     ethr =  4.89E-04,  avg # of iterations =  3.7

     negative rho (up, down):  1.531E+01 3.130E-03

     total cpu time spent up to now is       17.7 secs

     total energy              =   -1870.23135215 Ry
     Harris-Foulkes estimate   =   -1870.60701735 Ry
     estimated scf accuracy    <       0.98275321 Ry

     total magnetization       =     1.00 Bohr mag/cell
     absolute magnetization    =     1.35 Bohr mag/cell

     iteration #  5     ecut=    10.00 Ry     beta= 0.70
     CG style diagonalization
     ethr =  2.51E-04,  avg # of iterations =  3.5

     negative rho (up, down):  1.545E+01 2.486E-03

     total cpu time spent up to now is       20.6 secs

     total energy              =   -1870.46970772 Ry
     Harris-Foulkes estimate   =   -1870.49884297 Ry
     estimated scf accuracy    <       0.06620416 Ry

     total magnetization       =     1.00 Bohr mag/cell
     absolute magnetization    =     1.20 Bohr mag/cell

     iteration #  6     ecut=    10.00 Ry     beta= 0.70
     CG style diagonalization
     c_bands:  2 eigenvalues not converged
     ethr =  1.69E-05,  avg # of iterations =  7.9

     negative rho (up, down):  1.552E+01 1.977E-03

     total cpu time spent up to now is       26.9 secs

     total energy              =   -1870.48336832 Ry
     Harris-Foulkes estimate   =   -1870.48680081 Ry
     estimated scf accuracy    <       0.01350581 Ry

     total magnetization       =     1.00 Bohr mag/cell
     absolute magnetization    =     1.19 Bohr mag/cell

     iteration #  7     ecut=    10.00 Ry     beta= 0.70
     CG style diagonalization
     c_bands:  3 eigenvalues not converged
     c_bands:  2 eigenvalues not converged
     ethr =  3.45E-06,  avg # of iterations =  3.8

     negative rho (up, down):  1.555E+01 1.637E-03

     total cpu time spent up to now is       30.1 secs

     total energy              =   -1870.48424610 Ry
     Harris-Foulkes estimate   =   -1870.48508085 Ry
     estimated scf accuracy    <       0.00426097 Ry

     total magnetization       =     1.00 Bohr mag/cell
     absolute magnetization    =     1.20 Bohr mag/cell

     iteration #  8     ecut=    10.00 Ry     beta= 0.70
     CG style diagonalization
     c_bands:  3 eigenvalues not converged
     c_bands:  5 eigenvalues not converged
     ethr =  1.09E-06,  avg # of iterations =  3.7

     negative rho (up, down):  1.558E+01 1.283E-03

     total cpu time spent up to now is       33.1 secs

     total energy              =   -1870.48442215 Ry
     Harris-Foulkes estimate   =   -1870.48484286 Ry
     estimated scf accuracy    <       0.00155352 Ry

     total magnetization       =     1.00 Bohr mag/cell
     absolute magnetization    =     1.21 Bohr mag/cell

     iteration #  9     ecut=    10.00 Ry     beta= 0.70
     CG style diagonalization
     c_bands:  4 eigenvalues not converged
     c_bands:  3 eigenvalues not converged
     ethr =  3.97E-07,  avg # of iterations =  3.9

     negative rho (up, down):  1.559E+01 1.285E-03

     total cpu time spent up to now is       36.4 secs

     total energy              =   -1870.48478547 Ry
     Harris-Foulkes estimate   =   -1870.48482281 Ry
     estimated scf accuracy    <       0.00015176 Ry

     total magnetization       =     1.00 Bohr mag/cell
     absolute magnetization    =     1.22 Bohr mag/cell

     iteration # 10     ecut=    10.00 Ry     beta= 0.70
     CG style diagonalization
     c_bands:  2 eigenvalues not converged
     ethr =  3.88E-08,  avg # of iterations =  3.8

     negative rho (up, down):  1.559E+01 1.319E-03

     total cpu time spent up to now is       39.5 secs

     total energy              =   -1870.48481663 Ry
     Harris-Foulkes estimate   =   -1870.48484300 Ry
     estimated scf accuracy    <       0.00003928 Ry

     total magnetization       =     1.00 Bohr mag/cell
     absolute magnetization    =     1.23 Bohr mag/cell

     iteration # 11     ecut=    10.00 Ry     beta= 0.70
     CG style diagonalization
     ethr =  1.00E-08,  avg # of iterations =  3.7

     negative rho (up, down):  1.559E+01 1.326E-03

     total cpu time spent up to now is       42.5 secs

     total energy              =   -1870.48482954 Ry
     Harris-Foulkes estimate   =   -1870.48483166 Ry
     estimated scf accuracy    <       0.00001430 Ry

     total magnetization       =     1.00 Bohr mag/cell
     absolute magnetization    =     1.23 Bohr mag/cell

     iteration # 12     ecut=    10.00 Ry     beta= 0.70
     CG style diagonalization
     ethr =  3.66E-09,  avg # of iterations =  3.4

     negative rho (up, down):  1.559E+01 1.336E-03

     total cpu time spent up to now is       45.2 secs

     total energy              =   -1870.48483504 Ry
     Harris-Foulkes estimate   =   -1870.48483276 Ry
     estimated scf accuracy    <       0.00000171 Ry

     total magnetization       =     1.00 Bohr mag/cell
     absolute magnetization    =     1.23 Bohr mag/cell

     iteration # 13     ecut=    10.00 Ry     beta= 0.70
     CG style diagonalization
     ethr =  4.38E-10,  avg # of iterations =  3.7

     negative rho (up, down):  1.559E+01 1.336E-03
 
     Magnetic moment per site:
     atom:    1    charge:    0.6661    magn:    0.0001    constr:    0.0000
     atom:    2    charge:    0.6700    magn:    0.0004    constr:    0.0000
     atom:    3    charge:    0.6703    magn:    0.0011    constr:    0.0000
     atom:    4    charge:    0.6605    magn:   -0.0000    constr:    0.0000
     atom:    5    charge:    0.6749    magn:    0.0001    constr:    0.0000
     atom:    6    charge:    0.6749    magn:    0.0001    constr:    0.0000
     atom:    7    charge:    0.6667    magn:   -0.0001    constr:    0.0000
     atom:    8    charge:    0.6475    magn:    0.0001    constr:    0.0000
     atom:    9    charge:    0.6711    magn:   -0.0004    constr:    0.0000
     atom:   10    charge:    0.6805    magn:    0.0030    constr:    0.0000
     atom:   11    charge:    0.6510    magn:    0.0005    constr:    0.0000
     atom:   12    charge:    0.6671    magn:    0.0002    constr:    0.0000
     atom:   13    charge:    0.6928    magn:   -0.0000    constr:    0.0000
     atom:   14    charge:    0.6749    magn:    0.0001    constr:    0.0000
     atom:   15    charge:    0.6441    magn:   -0.0001    constr:    0.0000
     atom:   16    charge:    0.6308    magn:    0.0001    constr:    0.0000
     atom:   17    charge:    0.6549    magn:    0.0015    constr:    0.0000
     atom:   18    charge:    0.6213    magn:    0.0054    constr:    0.0000
     atom:   19    charge:    0.6584    magn:   -0.0005    constr:    0.0000
     atom:   20    charge:    0.6671    magn:    0.0002    constr:    0.0000
     atom:   21    charge:    0.6749    magn:    0.0001    constr:    0.0000
     atom:   22    charge:    0.6551    magn:    0.0001    constr:    0.0000
     atom:   23    charge:    0.6504    magn:    0.0005    constr:    0.0000
     atom:   24    charge:    0.6471    magn:   -0.0003    constr:    0.0000
     atom:   25    charge:    1.3994    magn:   -0.0139    constr:    0.0000
     atom:   26    charge:    0.6213    magn:    0.0054    constr:    0.0000
     atom:   27    charge:    0.6510    magn:    0.0005    constr:    0.0000
     atom:   28    charge:    0.6605    magn:   -0.0000    constr:    0.0000
     atom:   29    charge:    0.6535    magn:    0.0001    constr:    0.0000
     atom:   30    charge:    0.6851    magn:    0.0001    constr:    0.0000
     atom:   31    charge:    0.6855    magn:   -0.0003    constr:    0.0000
     atom:   32    charge:    0.6471    magn:   -0.0003    constr:    0.0000
     atom:   33    charge:    0.6549    magn:    0.0016    constr:    0.0000
     atom:   34    charge:    0.6805    magn:    0.0030    constr:    0.0000
     atom:   35    charge:    0.6703    magn:    0.0011    constr:    0.0000
     atom:   36    charge:    0.6335    magn:    0.0005    constr:    0.0000
     atom:   37    charge:    0.6518    magn:   -0.0000    constr:    0.0000
     atom:   38    charge:    0.6851    magn:    0.0001    constr:    0.0000
     atom:   39    charge:    0.6504    magn:    0.0005    constr:    0.0000
     atom:   40    charge:    0.6308    magn:    0.0001    constr:    0.0000
     atom:   41    charge:    0.6711    magn:   -0.0004    constr:    0.0000
     atom:   42    charge:    0.6700    magn:    0.0004    constr:    0.0000
     atom:   43    charge:    0.6446    magn:   -0.0001    constr:    0.0000
     atom:   44    charge:    0.6335    magn:    0.0005    constr:    0.0000
     atom:   45    charge:    0.6535    magn:    0.0001    constr:    0.0000
     atom:   46    charge:    0.6551    magn:    0.0001    constr:    0.0000
     atom:   47    charge:    0.6441    magn:   -0.0001    constr:    0.0000
     atom:   48    charge:    0.6475    magn:    0.0001    constr:    0.0000
     atom:   49    charge:    0.6661    magn:    0.0001    constr:    0.0000
     atom:   50    charge:    2.2579    magn:    0.0006    constr:    0.0000
     atom:   51    charge:    2.2008    magn:   -0.0002    constr:    0.0000
     atom:   52    charge:    2.1402    magn:    0.0027    constr:    0.0000
     atom:   53    charge:    2.2337    magn:   -0.0001    constr:    0.0000
     atom:   54    charge:    2.2264    magn:    0.0001    constr:    0.0000
     atom:   55    charge:    2.1531    magn:    0.0000    constr:    0.0000
     atom:   56    charge:    2.1893    magn:   -0.0001    constr:    0.0000
     atom:   57    charge:    2.2297    magn:    0.0003    constr:    0.0000
     atom:   58    charge:    2.2489    magn:    0.0038    constr:    0.0000
     atom:   59    charge:    2.1579    magn:    0.0038    constr:    0.0000
     atom:   60    charge:    2.2010    magn:    0.0091    constr:    0.0000
     atom:   61    charge:    2.2559    magn:    0.0015    constr:    0.0000
     atom:   62    charge:    2.1777    magn:   -0.0001    constr:    0.0000
     atom:   63    charge:    2.1531    magn:    0.0000    constr:    0.0000
     atom:   64    charge:    2.2522    magn:    0.0000    constr:    0.0000
     atom:   65    charge:    2.2742    magn:    0.0002    constr:    0.0000
     atom:   66    charge:    2.2718    magn:    0.0119    constr:    0.0000
     atom:   67    charge:    1.4114    magn:    0.0776    constr:    0.0000
     atom:   68    charge:    2.2807    magn:   -0.0013    constr:    0.0000
     atom:   69    charge:    2.2559    magn:    0.0014    constr:    0.0000
     atom:   70    charge:    2.2264    magn:    0.0001    constr:    0.0000
     atom:   71    charge:    2.2522    magn:   -0.0000    constr:    0.0000
     atom:   72    charge:    2.2004    magn:    0.0002    constr:    0.0000
     atom:   73    charge:    2.2017    magn:    0.0015    constr:    0.0000
     atom:   74    charge:    2.2350    magn:   -0.0008    constr:    0.0000
     atom:   75    charge:    1.4113    magn:    0.0769    constr:    0.0000
     atom:   76    charge:    2.2009    magn:    0.0091    constr:    0.0000
     atom:   77    charge:    2.2337    magn:   -0.0001    constr:    0.0000
     atom:   78    charge:    2.2489    magn:    0.0000    constr:    0.0000
     atom:   79    charge:    2.2045    magn:   -0.0000    constr:    0.0000
     atom:   80    charge:    2.1089    magn:   -0.0000    constr:    0.0000
     atom:   81    charge:    2.2017    magn:    0.0015    constr:    0.0000
     atom:   82    charge:    2.2718    magn:    0.0119    constr:    0.0000
     atom:   83    charge:    2.1578    magn:    0.0037    constr:    0.0000
     atom:   84    charge:    2.1401    magn:    0.0027    constr:    0.0000
     atom:   85    charge:    2.2327    magn:    0.0004    constr:    0.0000
     atom:   86    charge:    2.2693    magn:   -0.0001    constr:    0.0000
     atom:   87    charge:    2.2045    magn:   -0.0000    constr:    0.0000
     atom:   88    charge:    2.2004    magn:    0.0002    constr:    0.0000
     atom:   89    charge:    2.2742    magn:    0.0002    constr:    0.0000
     atom:   90    charge:    2.2489    magn:    0.0038    constr:    0.0000
     atom:   91    charge:    2.2008    magn:   -0.0002    constr:    0.0000
     atom:   92    charge:    2.2590    magn:   -0.0001    constr:    0.0000
     atom:   93    charge:    2.2327    magn:    0.0004    constr:    0.0000
     atom:   94    charge:    2.2489    magn:    0.0000    constr:    0.0000
     atom:   95    charge:    2.2522    magn:   -0.0000    constr:    0.0000
     atom:   96    charge:    2.2522    magn:    0.0000    constr:    0.0000
     atom:   97    charge:    2.2297    magn:    0.0003    constr:    0.0000
     atom:   98    charge:    2.2579    magn:    0.0005    constr:    0.0000

     total cpu time spent up to now is       48.1 secs

     End of self-consistent calculation

 ------ SPIN UP ------------


          k = 0.0000 0.0000 0.0000 (  9666 PWs)   bands (ev):

   -25.8360 -25.6523 -25.4824 -25.4667 -25.4561 -25.4074 -25.3544 -25.0504
   -24.8771 -24.8659 -24.8568 -24.7839 -24.7693 -24.6746 -24.5852 -24.5761
   -24.5497 -24.4262 -24.3888 -23.9871 -23.8385 -23.8344 -23.8316 -23.8234
   -23.8217 -23.8179 -23.8086 -23.7857 -23.7689 -23.6615 -23.6567 -23.5829
   -23.5484 -23.5415 -23.5127 -23.3988 -23.3734 -23.2554 -23.2552 -23.2364
   -23.2245 -23.1613 -23.1396 -23.1022 -23.0854 -23.0797 -23.0643 -19.8034
   -17.0663 -14.3071 -13.6532 -13.6467 -13.6390 -13.6248 -13.6150 -13.6087
   -13.5773 -13.5604 -13.5397 -13.4743 -13.3773 -13.0731 -12.8900 -12.8844
   -12.8736 -12.8327 -12.8172 -12.6120 -12.4965 -12.4860 -12.4807 -12.4798
   -12.4552 -12.4428 -12.4368 -12.4047 -12.3395 -12.1877 -12.1081 -11.6301
   -11.4719 -11.4716 -11.4117 -11.3874 -11.3092 -11.1853 -11.1653 -11.1077
   -11.0638 -10.9567 -10.8895 -10.0859 -10.0609 -10.0332 -10.0050  -9.9837
    -9.9658  -9.9601  -9.9485  -9.9363  -9.8618  -9.8491  -9.7413  -9.7054
    -9.4743  -9.4493  -9.4455  -9.4351  -9.4212  -9.4038  -9.3933  -9.3779
    -9.3620  -9.3522  -9.3301  -9.3298  -9.3176  -9.2917  -9.2895  -9.1610
    -9.1342  -9.0102  -8.6244  -8.6225  -8.5909  -8.5592  -8.4745  -8.4264
    -8.3668  -8.3569  -8.3487  -8.2775  -8.2716  -8.2612  -7.9433  -7.9223
    -7.9159  -7.9040  -7.8568  -7.8531  -7.8495  -7.8458  -7.8218  -7.8191
    -7.7525  -7.7380  -7.7371  -7.7195  -7.6830  -7.6546  -7.5824  -7.5112
    -7.4772  -7.4747  -7.3101  -7.2411  -6.9834  -6.6996  -6.4907  -6.3473
    -6.3432  -6.3373  -6.3357  -6.3294  -6.3208  -6.3173  -6.2896  -6.2735
    -6.1636  -6.0878  -5.9715  -5.9672  -5.9263  -5.8985  -5.7590  -5.7078
    -5.6936  -5.6818  -5.6608  -5.6185  -5.5861  -5.4668  -5.0683  -5.0394
    -4.8126  -4.7775  -4.7622  -4.7500  -4.6915  -4.6567  -4.5418  -4.5018
    -4.4990  -4.4942  -4.3546  -3.6378  -2.3747  -1.8353  -1.6990  -1.6817
    -1.6732  -1.6673  -1.6591  -1.6225  -1.4548  -1.2101  -1.1987  -1.1953
    -1.1855  -1.1797  -1.1702  -0.8036  -0.7942  -0.7895  -0.7871  -0.7851
    -0.7643  -0.4311  -0.3760  -0.3745  -0.3716  -0.3656  -0.3514  -0.3491
    -0.2583  -0.1845   0.0076   0.0152   0.0181   0.0440   0.0495   0.0828
     0.0830   0.0856   0.0860   0.0995   0.1025   0.1661   0.2096   0.2216
     0.2240   0.2310   0.2400   0.2604   0.2743

 ------ SPIN DOWN ----------


          k = 0.0000 0.0000 0.0000 (  9666 PWs)   bands (ev):

   -25.8309 -25.6496 -25.4789 -25.4650 -25.4544 -25.3989 -25.3487 -25.0456
   -24.8710 -24.8584 -24.8530 -24.7793 -24.7665 -24.6730 -24.5767 -24.5675
   -24.5459 -24.4133 -24.3827 -23.9766 -23.8334 -23.8306 -23.8300 -23.8201
   -23.8176 -23.8063 -23.8055 -23.7743 -23.7645 -23.6579 -23.6512 -23.5784
   -23.5431 -23.5357 -23.5081 -23.3886 -23.3689 -23.2505 -23.2478 -23.2299
   -23.2202 -23.1564 -23.1318 -23.0993 -23.0813 -23.0750 -23.0587 -19.6350
   -16.7501 -14.2349 -13.6511 -13.6426 -13.6370 -13.6236 -13.6123 -13.6060
   -13.5753 -13.5569 -13.5362 -13.4616 -13.3687 -13.0625 -12.8889 -12.8816
   -12.8689 -12.8276 -12.8119 -12.6016 -12.4923 -12.4811 -12.4786 -12.4779
   -12.4533 -12.4390 -12.4314 -12.3965 -12.3267 -12.1641 -12.0889 -11.6254
   -11.4699 -11.4698 -11.4041 -11.3810 -11.3015 -11.1790 -11.1598 -11.0994
   -11.0521 -10.9414 -10.8723 -10.0809 -10.0472 -10.0277 -10.0007  -9.9798
    -9.9613  -9.9568  -9.9452  -9.9329  -9.8511  -9.8417  -9.7261  -9.6912
    -9.4598  -9.4469  -9.4395  -9.4305  -9.4178  -9.3995  -9.3870  -9.3593
    -9.3551  -9.3504  -9.3263  -9.3258  -9.3119  -9.2790  -9.2372  -9.1488
    -9.1077  -8.9996  -8.6227  -8.6208  -8.5894  -8.5469  -8.4659  -8.4131
    -8.3561  -8.3420  -8.3405  -8.2643  -8.2513  -8.2307  -7.9379  -7.9157
    -7.9126  -7.9005  -7.8495  -7.8432  -7.8407  -7.8325  -7.8174  -7.8126
    -7.7500  -7.7340  -7.6797  -7.6796  -7.6780  -7.6485  -7.5739  -7.5085
    -7.4755  -7.4696  -7.2642  -7.2091  -6.9488  -6.6507  -6.4747  -6.3383
    -6.3377  -6.3317  -6.3224  -6.3221  -6.3091  -6.3019  -6.2635  -6.2593
    -6.1095  -6.0535  -5.9647  -5.9638  -5.9232  -5.8863  -5.7450  -5.6953
    -5.6823  -5.6682  -5.6524  -5.6020  -5.5172  -5.4080  -5.0116  -4.9668
    -4.7973  -4.7668  -4.7475  -4.7387  -4.6605  -4.6444  -4.5349  -4.4917
    -4.4885  -4.4860  -4.2235  -3.1725  -2.3704  -1.8335  -1.6981  -1.6801
    -1.6721  -1.6640  -1.6531  -1.6097  -1.4524  -1.2094  -1.1980  -1.1925
    -1.1845  -1.1768  -1.1667  -0.8031  -0.7933  -0.7889  -0.7852  -0.7842
    -0.7598  -0.4271  -0.3743  -0.3731  -0.3683  -0.3624  -0.3433  -0.3415
    -0.2164  -0.1811   0.0156   0.0222   0.0346   0.0597   0.0639   0.0838
     0.0843   0.0871   0.0873   0.1050   0.1070   0.1725   0.2085   0.2215
     0.2249   0.2298   0.2327   0.2665   0.2841

     highest occupied, lowest unoccupied level (ev):    -3.6378   -3.1725

!    total energy              =   -1870.48483615 Ry
     Harris-Foulkes estimate   =   -1870.48483564 Ry
     estimated scf accuracy    <       0.00000029 Ry

     total magnetization       =     1.00 Bohr mag/cell
     absolute magnetization    =     1.23 Bohr mag/cell

     convergence has been achieved in  13 iterations

     Using ACE for calculation of exact exchange

     EXX grid:    77329 G-vectors     FFT dimensions: (  72,  72,  80)

     negative rho (up, down):  1.559E+01 1.336E-03

     EXX: now go back to refine exchange calculation

     total cpu time spent up to now is     1255.9 secs

     Self-consistent Calculation

     iteration #  1     ecut=    10.00 Ry     beta= 0.70
     CG style diagonalization
     c_bands:  1 eigenvalues not converged
     ethr =  4.38E-10,  avg # of iterations = 26.2

     negative rho (up, down):  1.575E+01 1.136E-03

     total cpu time spent up to now is     1283.0 secs

     total energy              =   -1650.38578221 Ry
     Harris-Foulkes estimate   =   -1650.40225091 Ry
     estimated scf accuracy    <       0.03102451 Ry

     total magnetization       =     1.00 Bohr mag/cell
     absolute magnetization    =     1.32 Bohr mag/cell

     iteration #  2     ecut=    10.00 Ry     beta= 0.70
     CG style diagonalization
     c_bands:  1 eigenvalues not converged
     c_bands:  1 eigenvalues not converged
     ethr =  7.93E-06,  avg # of iterations =  4.5

     negative rho (up, down):  1.564E+01 1.177E-03

     total cpu time spent up to now is     1287.4 secs

     total energy              =   -1644.83216154 Ry
     Harris-Foulkes estimate   =   -1644.84353497 Ry
     estimated scf accuracy    <       0.01854395 Ry

     total magnetization       =     1.00 Bohr mag/cell
     absolute magnetization    =     1.32 Bohr mag/cell

     iteration #  3     ecut=    10.00 Ry     beta= 0.70
     CG style diagonalization
     ethr =  4.74E-06,  avg # of iterations =  3.2

     negative rho (up, down):  1.556E+01 1.251E-03

     total cpu time spent up to now is     1290.4 secs

     total energy              =   -1644.83096692 Ry
     Harris-Foulkes estimate   =   -1644.83351727 Ry
     estimated scf accuracy    <       0.00266688 Ry

     total magnetization       =     1.00 Bohr mag/cell
     absolute magnetization    =     1.33 Bohr mag/cell

     iteration #  4     ecut=    10.00 Ry     beta= 0.70
     CG style diagonalization
     c_bands:  1 eigenvalues not converged
     ethr =  6.82E-07,  avg # of iterations =  3.9

     negative rho (up, down):  1.556E+01 1.232E-03

     total cpu time spent up to now is     1293.9 secs

     total energy              =   -1644.83153219 Ry
     Harris-Foulkes estimate   =   -1644.83161420 Ry
     estimated scf accuracy    <       0.00019365 Ry

     total magnetization       =     1.00 Bohr mag/cell
     absolute magnetization    =     1.33 Bohr mag/cell

     iteration #  5     ecut=    10.00 Ry     beta= 0.70
     CG style diagonalization
     c_bands:  1 eigenvalues not converged
     ethr =  4.95E-08,  avg # of iterations =  3.4

     negative rho (up, down):  1.556E+01 1.271E-03

     total cpu time spent up to now is     1297.1 secs

     total energy              =   -1644.83158256 Ry
     Harris-Foulkes estimate   =   -1644.83157222 Ry
     estimated scf accuracy    <       0.00001627 Ry

     total magnetization       =     1.00 Bohr mag/cell
     absolute magnetization    =     1.33 Bohr mag/cell

     iteration #  6     ecut=    10.00 Ry     beta= 0.70
     CG style diagonalization
     ethr =  4.16E-09,  avg # of iterations =  3.9

     negative rho (up, down):  1.556E+01 1.264E-03

     total cpu time spent up to now is     1300.8 secs

     total energy              =   -1644.83158788 Ry
     Harris-Foulkes estimate   =   -1644.83159253 Ry
     estimated scf accuracy    <       0.00000678 Ry

     total magnetization       =     1.00 Bohr mag/cell
     absolute magnetization    =     1.33 Bohr mag/cell

     iteration #  7     ecut=    10.00 Ry     beta= 0.70
     CG style diagonalization
     ethr =  1.73E-09,  avg # of iterations =  3.7

     negative rho (up, down):  1.556E+01 1.256E-03
 
     Magnetic moment per site:
     atom:    1    charge:    0.6490    magn:    0.0000    constr:    0.0000
     atom:    2    charge:    0.6536    magn:    0.0003    constr:    0.0000
     atom:    3    charge:    0.6527    magn:    0.0009    constr:    0.0000
     atom:    4    charge:    0.6431    magn:   -0.0000    constr:    0.0000
     atom:    5    charge:    0.6575    magn:    0.0001    constr:    0.0000
     atom:    6    charge:    0.6587    magn:    0.0001    constr:    0.0000
     atom:    7    charge:    0.6489    magn:   -0.0000    constr:    0.0000
     atom:    8    charge:    0.6298    magn:    0.0001    constr:    0.0000
     atom:    9    charge:    0.6545    magn:   -0.0004    constr:    0.0000
     atom:   10    charge:    0.6651    magn:    0.0027    constr:    0.0000
     atom:   11    charge:    0.6333    magn:    0.0004    constr:    0.0000
     atom:   12    charge:    0.6503    magn:    0.0001    constr:    0.0000
     atom:   13    charge:    0.6774    magn:    0.0000    constr:    0.0000
     atom:   14    charge:    0.6587    magn:    0.0001    constr:    0.0000
     atom:   15    charge:    0.6272    magn:   -0.0001    constr:    0.0000
     atom:   16    charge:    0.6146    magn:   -0.0000    constr:    0.0000
     atom:   17    charge:    0.6385    magn:    0.0014    constr:    0.0000
     atom:   18    charge:    0.6057    magn:    0.0052    constr:    0.0000
     atom:   19    charge:    0.6415    magn:   -0.0006    constr:    0.0000
     atom:   20    charge:    0.6503    magn:    0.0001    constr:    0.0000
     atom:   21    charge:    0.6575    magn:    0.0001    constr:    0.0000
     atom:   22    charge:    0.6378    magn:    0.0000    constr:    0.0000
     atom:   23    charge:    0.6332    magn:    0.0004    constr:    0.0000
     atom:   24    charge:    0.6300    magn:   -0.0007    constr:    0.0000
     atom:   25    charge:    1.3807    magn:   -0.0208    constr:    0.0000
     atom:   26    charge:    0.6057    magn:    0.0053    constr:    0.0000
     atom:   27    charge:    0.6333    magn:    0.0004    constr:    0.0000
     atom:   28    charge:    0.6431    magn:   -0.0000    constr:    0.0000
     atom:   29    charge:    0.6362    magn:    0.0001    constr:    0.0000
     atom:   30    charge:    0.6680    magn:    0.0001    constr:    0.0000
     atom:   31    charge:    0.6684    magn:   -0.0004    constr:    0.0000
     atom:   32    charge:    0.6300    magn:   -0.0006    constr:    0.0000
     atom:   33    charge:    0.6385    magn:    0.0015    constr:    0.0000
     atom:   34    charge:    0.6651    magn:    0.0027    constr:    0.0000
     atom:   35    charge:    0.6528    magn:    0.0008    constr:    0.0000
     atom:   36    charge:    0.6169    magn:    0.0004    constr:    0.0000
     atom:   37    charge:    0.6347    magn:   -0.0000    constr:    0.0000
     atom:   38    charge:    0.6680    magn:    0.0001    constr:    0.0000
     atom:   39    charge:    0.6332    magn:    0.0004    constr:    0.0000
     atom:   40    charge:    0.6146    magn:   -0.0000    constr:    0.0000
     atom:   41    charge:    0.6545    magn:   -0.0004    constr:    0.0000
     atom:   42    charge:    0.6536    magn:    0.0003    constr:    0.0000
     atom:   43    charge:    0.6262    magn:   -0.0001    constr:    0.0000
     atom:   44    charge:    0.6169    magn:    0.0004    constr:    0.0000
     atom:   45    charge:    0.6362    magn:    0.0001    constr:    0.0000
     atom:   46    charge:    0.6378    magn:    0.0000    constr:    0.0000
     atom:   47    charge:    0.6272    magn:   -0.0001    constr:    0.0000
     atom:   48    charge:    0.6298    magn:    0.0001    constr:    0.0000
     atom:   49    charge:    0.6490    magn:    0.0000    constr:    0.0000
     atom:   50    charge:    2.2480    magn:    0.0004    constr:    0.0000
     atom:   51    charge:    2.1898    magn:   -0.0002    constr:    0.0000
     atom:   52    charge:    2.1288    magn:    0.0020    constr:    0.0000
     atom:   53    charge:    2.2235    magn:   -0.0002    constr:    0.0000
     atom:   54    charge:    2.2160    magn:   -0.0000    constr:    0.0000
     atom:   55    charge:    2.1420    magn:    0.0000    constr:    0.0000
     atom:   56    charge:    2.1780    magn:   -0.0001    constr:    0.0000
     atom:   57    charge:    2.2193    magn:    0.0002    constr:    0.0000
     atom:   58    charge:    2.2388    magn:    0.0032    constr:    0.0000
     atom:   59    charge:    2.1466    magn:    0.0036    constr:    0.0000
     atom:   60    charge:    2.1902    magn:    0.0081    constr:    0.0000
     atom:   61    charge:    2.2459    magn:    0.0010    constr:    0.0000
     atom:   62    charge:    2.1668    magn:   -0.0001    constr:    0.0000
     atom:   63    charge:    2.1420    magn:   -0.0000    constr:    0.0000
     atom:   64    charge:    2.2422    magn:   -0.0000    constr:    0.0000
     atom:   65    charge:    2.2641    magn:    0.0001    constr:    0.0000
     atom:   66    charge:    2.2614    magn:    0.0114    constr:    0.0000
     atom:   67    charge:    1.3992    magn:    0.0847    constr:    0.0000
     atom:   68    charge:    2.2702    magn:   -0.0018    constr:    0.0000
     atom:   69    charge:    2.2459    magn:    0.0010    constr:    0.0000
     atom:   70    charge:    2.2160    magn:   -0.0001    constr:    0.0000
     atom:   71    charge:    2.2419    magn:   -0.0000    constr:    0.0000
     atom:   72    charge:    2.1897    magn:    0.0001    constr:    0.0000
     atom:   73    charge:    2.1912    magn:    0.0010    constr:    0.0000
     atom:   74    charge:    2.2225    magn:   -0.0016    constr:    0.0000
     atom:   75    charge:    1.3992    magn:    0.0844    constr:    0.0000
     atom:   76    charge:    2.1902    magn:    0.0081    constr:    0.0000
     atom:   77    charge:    2.2235    magn:   -0.0002    constr:    0.0000
     atom:   78    charge:    2.2386    magn:   -0.0001    constr:    0.0000
     atom:   79    charge:    2.1938    magn:   -0.0001    constr:    0.0000
     atom:   80    charge:    2.0976    magn:   -0.0001    constr:    0.0000
     atom:   81    charge:    2.1912    magn:    0.0011    constr:    0.0000
     atom:   82    charge:    2.2614    magn:    0.0113    constr:    0.0000
     atom:   83    charge:    2.1466    magn:    0.0036    constr:    0.0000
     atom:   84    charge:    2.1288    magn:    0.0020    constr:    0.0000
     atom:   85    charge:    2.2224    magn:    0.0002    constr:    0.0000
     atom:   86    charge:    2.2591    magn:   -0.0001    constr:    0.0000
     atom:   87    charge:    2.1938    magn:   -0.0000    constr:    0.0000
     atom:   88    charge:    2.1897    magn:    0.0001    constr:    0.0000
     atom:   89    charge:    2.2641    magn:    0.0001    constr:    0.0000
     atom:   90    charge:    2.2388    magn:    0.0032    constr:    0.0000
     atom:   91    charge:    2.1898    magn:   -0.0002    constr:    0.0000
     atom:   92    charge:    2.2491    magn:   -0.0001    constr:    0.0000
     atom:   93    charge:    2.2224    magn:    0.0002    constr:    0.0000
     atom:   94    charge:    2.2386    magn:   -0.0002    constr:    0.0000
     atom:   95    charge:    2.2419    magn:   -0.0001    constr:    0.0000
     atom:   96    charge:    2.2422    magn:   -0.0000    constr:    0.0000
     atom:   97    charge:    2.2193    magn:    0.0002    constr:    0.0000
     atom:   98    charge:    2.2480    magn:    0.0004    constr:    0.0000

     total cpu time spent up to now is     1304.2 secs

     End of self-consistent calculation

 ------ SPIN UP ------------


          k = 0.0000 0.0000 0.0000 (  9666 PWs)   bands (ev):

   -29.0249 -28.8063 -28.6273 -28.6112 -28.5998 -28.5491 -28.4837 -28.1170
   -27.9213 -27.9073 -27.9008 -27.8171 -27.7956 -27.6832 -27.5791 -27.5701
   -27.5479 -27.4083 -27.3623 -26.8905 -26.7124 -26.7048 -26.7038 -26.6981
   -26.6939 -26.6917 -26.6816 -26.6619 -26.6420 -26.5062 -26.4994 -26.4064
   -26.3622 -26.3582 -26.3331 -26.1920 -26.1666 -26.0208 -26.0157 -25.9986
   -25.9867 -25.9157 -25.8967 -25.8454 -25.8302 -25.8250 -25.8129 -22.5485
   -19.6545 -16.4766 -15.7390 -15.7389 -15.7261 -15.7058 -15.7003 -15.6863
   -15.6535 -15.6337 -15.6135 -15.5588 -15.4508 -15.0684 -14.8578 -14.8569
   -14.8358 -14.8009 -14.7748 -14.5297 -14.4050 -14.3992 -14.3804 -14.3796
   -14.3589 -14.3515 -14.3450 -14.3078 -14.2497 -14.0762 -14.0187 -13.4123
   -13.2441 -13.2430 -13.1917 -13.1655 -13.0748 -12.9062 -12.8881 -12.8348
   -12.7748 -12.6693 -12.6036 -11.7006 -11.6672 -11.5975 -11.5693 -11.5304
   -11.5219 -11.5198 -11.5081 -11.4944 -11.4110 -11.4047 -11.2921 -11.2515
   -11.0565 -11.0105 -11.0001 -10.9864 -10.9499 -10.9461 -10.9108 -10.9031
   -10.8724 -10.8500 -10.8431 -10.8277 -10.8240 -10.8126 -10.7832 -10.6613
   -10.6396 -10.4774 -10.0147 -10.0097  -9.9837  -9.9743  -9.8761  -9.8755
    -9.7955  -9.7807  -9.7748  -9.6928  -9.6872  -9.6570  -9.2919  -9.2834
    -9.2422  -9.2348  -9.2064  -9.2020  -9.1749  -9.1728  -9.1641  -9.1343
    -9.0945  -9.0675  -9.0577  -9.0424  -8.9908  -8.9579  -8.8869  -8.8012
    -8.7712  -8.7580  -8.6606  -8.5324  -8.2681  -7.9934  -7.6731  -7.4952
    -7.4891  -7.4857  -7.4834  -7.4740  -7.4704  -7.4642  -7.4424  -7.4218
    -7.3019  -7.2080  -7.1570  -7.1558  -7.1137  -7.0914  -6.8701  -6.8252
    -6.7805  -6.7493  -6.7385  -6.7166  -6.6423  -6.5063  -6.2158  -6.2102
    -5.7785  -5.7398  -5.7254  -5.7117  -5.6444  -5.5944  -5.4435  -5.4040
    -5.4003  -5.3944  -5.2468  -4.4377  -1.6614  -1.2018  -0.9920  -0.9798
    -0.9722  -0.9677  -0.9618  -0.9406  -0.8992  -0.5714  -0.5627  -0.5603
    -0.5509  -0.5469  -0.5399  -0.2489  -0.2405  -0.2381  -0.2347  -0.2338
    -0.2135   0.1835   0.3361   0.3367   0.3375   0.3425   0.3521   0.3528
     0.4610   0.5587   0.7251   0.7254   0.7260   0.7272   0.7357   0.7524
     0.8206   0.8319   0.8327   0.8359   0.8383   0.8903   0.9638   1.0065
     1.0149   1.0188   1.0202   1.0496   1.0600

 ------ SPIN DOWN ----------


          k = 0.0000 0.0000 0.0000 (  9666 PWs)   bands (ev):

   -29.0184 -28.8023 -28.6225 -28.6086 -28.5979 -28.5362 -28.4749 -28.1115
   -27.9132 -27.8957 -27.8956 -27.8100 -27.7913 -27.6813 -27.5678 -27.5589
   -27.5427 -27.3899 -27.3535 -26.8758 -26.7049 -26.7014 -26.6992 -26.6895
   -26.6888 -26.6789 -26.6768 -26.6452 -26.6354 -26.5009 -26.4919 -26.3985
   -26.3551 -26.3507 -26.3267 -26.1776 -26.1594 -26.0100 -26.0086 -25.9893
   -25.9801 -25.9094 -25.8859 -25.8417 -25.8246 -25.8193 -25.8062 -22.3119
   -19.1713 -16.3770 -15.7364 -15.7335 -15.7228 -15.7043 -15.6975 -15.6831
   -15.6511 -15.6291 -15.6089 -15.5400 -15.4376 -15.0534 -14.8557 -14.8534
   -14.8308 -14.7944 -14.7669 -14.5160 -14.3999 -14.3926 -14.3783 -14.3773
   -14.3564 -14.3485 -14.3390 -14.2967 -14.2315 -14.0443 -13.9904 -13.4071
   -13.2417 -13.2406 -13.1826 -13.1571 -13.0633 -12.8986 -12.8821 -12.8239
   -12.7597 -12.6495 -12.5795 -11.6758 -11.6621 -11.5906 -11.5642 -11.5257
   -11.5168 -11.5164 -11.5047 -11.4904 -11.3971 -11.3945 -11.2744 -11.2333
   -11.0265 -10.9999 -10.9912 -10.9806 -10.9478 -10.9050 -10.9012 -10.8926
   -10.8475 -10.8411 -10.8239 -10.8203 -10.8068 -10.7712 -10.7657 -10.6458
   -10.6084 -10.4616 -10.0123 -10.0081  -9.9819  -9.9619  -9.8660  -9.8469
    -9.7758  -9.7596  -9.7507  -9.6504  -9.6404  -9.6242  -9.2791  -9.2770
    -9.2398  -9.2306  -9.1769  -9.1740  -9.1674  -9.1611  -9.1574  -9.1323
    -9.0559  -9.0393  -8.9880  -8.9819  -8.9776  -8.9517  -8.8755  -8.7987
    -8.7659  -8.7566  -8.6117  -8.4959  -8.2264  -7.9309  -7.6361  -7.4789
    -7.4759  -7.4698  -7.4616  -7.4605  -7.4460  -7.4302  -7.3847  -7.3838
    -7.1869  -7.1526  -7.1487  -7.1233  -7.1106  -7.0812  -6.8527  -6.7943
    -6.7564  -6.7223  -6.7066  -6.6944  -6.4951  -6.3732  -6.1474  -6.1387
    -5.7392  -5.7113  -5.6935  -5.6861  -5.5786  -5.5672  -5.4320  -5.3846
    -5.3777  -5.3698  -4.9571  -2.5532  -1.6586  -1.2005  -0.9917  -0.9791
    -0.9713  -0.9660  -0.9576  -0.9346  -0.8936  -0.5710  -0.5623  -0.5583
    -0.5501  -0.5440  -0.5374  -0.2487  -0.2399  -0.2376  -0.2340  -0.2318
    -0.2081   0.1867   0.3368   0.3373   0.3394   0.3442   0.3582   0.3586
     0.4642   0.6499   0.7257   0.7258   0.7269   0.7278   0.7388   0.7701
     0.8209   0.8323   0.8339   0.8386   0.8396   0.9323   0.9632   0.9854
     1.0281   1.0356   1.0452   1.0837   1.0875

     highest occupied, lowest unoccupied level (ev):    -4.4377   -2.5532

!    total energy              =   -1644.83159691 Ry
     Harris-Foulkes estimate   =   -1644.83158919 Ry
     estimated scf accuracy    <       0.00000017 Ry

     total magnetization       =     1.00 Bohr mag/cell
     absolute magnetization    =     1.33 Bohr mag/cell

     convergence has been achieved in   7 iterations

     Using ACE for calculation of exact exchange

     total energy              =   -1644.87317640 Ry
     Harris-Foulkes estimate   =   -1644.87316868 Ry
     est. exchange err (dexx)  =       0.04157948 Ry
     - averaged Fock potential =     187.24224587 Ry
     + Fock energy (ACE)       =     -93.81093631 Ry

     EXX: now go back to refine exchange calculation

     total cpu time spent up to now is     2486.4 secs

     Self-consistent Calculation

     iteration #  1     ecut=    10.00 Ry     beta= 0.70
     CG style diagonalization
     ethr =  1.73E-09,  avg # of iterations = 14.9

     negative rho (up, down):  1.555E+01 1.319E-03

     total cpu time spent up to now is     2502.6 secs

     total energy              =   -1644.88130442 Ry
     Harris-Foulkes estimate   =   -1644.88280059 Ry
     estimated scf accuracy    <       0.00285025 Ry

     total magnetization       =     1.00 Bohr mag/cell
     absolute magnetization    =     1.36 Bohr mag/cell

     iteration #  2     ecut=    10.00 Ry     beta= 0.70
     CG style diagonalization
     ethr =  7.29E-07,  avg # of iterations =  3.8

     negative rho (up, down):  1.555E+01 1.341E-03

     total cpu time spent up to now is     2506.2 secs

     total energy              =   -1644.88187845 Ry
     Harris-Foulkes estimate   =   -1644.88202350 Ry
     estimated scf accuracy    <       0.00018874 Ry

     total magnetization       =     1.00 Bohr mag/cell
     absolute magnetization    =     1.36 Bohr mag/cell

     iteration #  3     ecut=    10.00 Ry     beta= 0.70
     CG style diagonalization
     ethr =  4.83E-08,  avg # of iterations =  3.8

     negative rho (up, down):  1.555E+01 1.283E-03

     total cpu time spent up to now is     2509.9 secs

     total energy              =   -1644.88195775 Ry
     Harris-Foulkes estimate   =   -1644.88192456 Ry
     estimated scf accuracy    <       0.00000877 Ry

     total magnetization       =     1.00 Bohr mag/cell
     absolute magnetization    =     1.36 Bohr mag/cell

     iteration #  4     ecut=    10.00 Ry     beta= 0.70
     CG style diagonalization
     ethr =  2.24E-09,  avg # of iterations =  3.6

     negative rho (up, down):  1.555E+01 1.283E-03

     total cpu time spent up to now is     2513.3 secs

     total energy              =   -1644.88196415 Ry
     Harris-Foulkes estimate   =   -1644.88196067 Ry
     estimated scf accuracy    <       0.00000241 Ry

     total magnetization       =     1.00 Bohr mag/cell
     absolute magnetization    =     1.36 Bohr mag/cell

     iteration #  5     ecut=    10.00 Ry     beta= 0.70
     CG style diagonalization
     ethr =  6.17E-10,  avg # of iterations =  3.5

     negative rho (up, down):  1.555E+01 1.288E-03
 
     Magnetic moment per site:
     atom:    1    charge:    0.6466    magn:   -0.0000    constr:    0.0000
     atom:    2    charge:    0.6510    magn:    0.0004    constr:    0.0000
     atom:    3    charge:    0.6501    magn:    0.0008    constr:    0.0000
     atom:    4    charge:    0.6406    magn:   -0.0000    constr:    0.0000
     atom:    5    charge:    0.6549    magn:    0.0000    constr:    0.0000
     atom:    6    charge:    0.6561    magn:    0.0001    constr:    0.0000
     atom:    7    charge:    0.6464    magn:   -0.0000    constr:    0.0000
     atom:    8    charge:    0.6274    magn:    0.0001    constr:    0.0000
     atom:    9    charge:    0.6520    magn:   -0.0004    constr:    0.0000
     atom:   10    charge:    0.6628    magn:    0.0026    constr:    0.0000
     atom:   11    charge:    0.6307    magn:    0.0003    constr:    0.0000
     atom:   12    charge:    0.6478    magn:    0.0001    constr:    0.0000
     atom:   13    charge:    0.6751    magn:    0.0000    constr:    0.0000
     atom:   14    charge:    0.6561    magn:    0.0001    constr:    0.0000
     atom:   15    charge:    0.6245    magn:   -0.0001    constr:    0.0000
     atom:   16    charge:    0.6121    magn:   -0.0001    constr:    0.0000
     atom:   17    charge:    0.6360    magn:    0.0011    constr:    0.0000
     atom:   18    charge:    0.6034    magn:    0.0051    constr:    0.0000
     atom:   19    charge:    0.6392    magn:   -0.0005    constr:    0.0000
     atom:   20    charge:    0.6478    magn:    0.0001    constr:    0.0000
     atom:   21    charge:    0.6549    magn:    0.0000    constr:    0.0000
     atom:   22    charge:    0.6353    magn:    0.0000    constr:    0.0000
     atom:   23    charge:    0.6305    magn:    0.0003    constr:    0.0000
     atom:   24    charge:    0.6276    magn:   -0.0008    constr:    0.0000
     atom:   25    charge:    1.3781    magn:   -0.0251    constr:    0.0000
     atom:   26    charge:    0.6034    magn:    0.0052    constr:    0.0000
     atom:   27    charge:    0.6307    magn:    0.0003    constr:    0.0000
     atom:   28    charge:    0.6406    magn:   -0.0000    constr:    0.0000
     atom:   29    charge:    0.6338    magn:    0.0001    constr:    0.0000
     atom:   30    charge:    0.6654    magn:    0.0000    constr:    0.0000
     atom:   31    charge:    0.6657    magn:   -0.0005    constr:    0.0000
     atom:   32    charge:    0.6276    magn:   -0.0008    constr:    0.0000
     atom:   33    charge:    0.6360    magn:    0.0012    constr:    0.0000
     atom:   34    charge:    0.6628    magn:    0.0026    constr:    0.0000
     atom:   35    charge:    0.6501    magn:    0.0007    constr:    0.0000
     atom:   36    charge:    0.6143    magn:    0.0003    constr:    0.0000
     atom:   37    charge:    0.6320    magn:   -0.0000    constr:    0.0000
     atom:   38    charge:    0.6654    magn:    0.0000    constr:    0.0000
     atom:   39    charge:    0.6305    magn:    0.0003    constr:    0.0000
     atom:   40    charge:    0.6121    magn:   -0.0000    constr:    0.0000
     atom:   41    charge:    0.6520    magn:   -0.0004    constr:    0.0000
     atom:   42    charge:    0.6510    magn:    0.0003    constr:    0.0000
     atom:   43    charge:    0.6239    magn:   -0.0001    constr:    0.0000
     atom:   44    charge:    0.6143    magn:    0.0003    constr:    0.0000
     atom:   45    charge:    0.6338    magn:    0.0001    constr:    0.0000
     atom:   46    charge:    0.6353    magn:    0.0000    constr:    0.0000
     atom:   47    charge:    0.6245    magn:   -0.0001    constr:    0.0000
     atom:   48    charge:    0.6274    magn:    0.0001    constr:    0.0000
     atom:   49    charge:    0.6466    magn:   -0.0000    constr:    0.0000
     atom:   50    charge:    2.2486    magn:    0.0004    constr:    0.0000
     atom:   51    charge:    2.1903    magn:   -0.0002    constr:    0.0000
     atom:   52    charge:    2.1292    magn:    0.0017    constr:    0.0000
     atom:   53    charge:    2.2241    magn:   -0.0002    constr:    0.0000
     atom:   54    charge:    2.2166    magn:   -0.0000    constr:    0.0000
     atom:   55    charge:    2.1426    magn:    0.0000    constr:    0.0000
     atom:   56    charge:    2.1785    magn:   -0.0001    constr:    0.0000
     atom:   57    charge:    2.2199    magn:    0.0002    constr:    0.0000
     atom:   58    charge:    2.2394    magn:    0.0029    constr:    0.0000
     atom:   59    charge:    2.1471    magn:    0.0035    constr:    0.0000
     atom:   60    charge:    2.1908    magn:    0.0076    constr:    0.0000
     atom:   61    charge:    2.2465    magn:    0.0009    constr:    0.0000
     atom:   62    charge:    2.1673    magn:   -0.0001    constr:    0.0000
     atom:   63    charge:    2.1426    magn:   -0.0000    constr:    0.0000
     atom:   64    charge:    2.2429    magn:   -0.0000    constr:    0.0000
     atom:   65    charge:    2.2647    magn:    0.0002    constr:    0.0000
     atom:   66    charge:    2.2621    magn:    0.0110    constr:    0.0000
     atom:   67    charge:    1.3995    magn:    0.0887    constr:    0.0000
     atom:   68    charge:    2.2708    magn:   -0.0018    constr:    0.0000
     atom:   69    charge:    2.2465    magn:    0.0009    constr:    0.0000
     atom:   70    charge:    2.2166    magn:   -0.0000    constr:    0.0000
     atom:   71    charge:    2.2425    magn:   -0.0000    constr:    0.0000
     atom:   72    charge:    2.1903    magn:    0.0001    constr:    0.0000
     atom:   73    charge:    2.1918    magn:    0.0009    constr:    0.0000
     atom:   74    charge:    2.2226    magn:   -0.0018    constr:    0.0000
     atom:   75    charge:    1.3995    magn:    0.0885    constr:    0.0000
     atom:   76    charge:    2.1907    magn:    0.0076    constr:    0.0000
     atom:   77    charge:    2.2241    magn:   -0.0002    constr:    0.0000
     atom:   78    charge:    2.2393    magn:   -0.0001    constr:    0.0000
     atom:   79    charge:    2.1944    magn:   -0.0000    constr:    0.0000
     atom:   80    charge:    2.0982    magn:   -0.0000    constr:    0.0000
     atom:   81    charge:    2.1918    magn:    0.0009    constr:    0.0000
     atom:   82    charge:    2.2621    magn:    0.0109    constr:    0.0000
     atom:   83    charge:    2.1471    magn:    0.0035    constr:    0.0000
     atom:   84    charge:    2.1292    magn:    0.0017    constr:    0.0000
     atom:   85    charge:    2.2230    magn:    0.0002    constr:    0.0000
     atom:   86    charge:    2.2597    magn:   -0.0001    constr:    0.0000
     atom:   87    charge:    2.1944    magn:   -0.0000    constr:    0.0000
     atom:   88    charge:    2.1903    magn:    0.0001    constr:    0.0000
     atom:   89    charge:    2.2647    magn:    0.0001    constr:    0.0000
     atom:   90    charge:    2.2394    magn:    0.0029    constr:    0.0000
     atom:   91    charge:    2.1903    magn:   -0.0002    constr:    0.0000
     atom:   92    charge:    2.2497    magn:   -0.0001    constr:    0.0000
     atom:   93    charge:    2.2230    magn:    0.0002    constr:    0.0000
     atom:   94    charge:    2.2393    magn:   -0.0002    constr:    0.0000
     atom:   95    charge:    2.2425    magn:   -0.0000    constr:    0.0000
     atom:   96    charge:    2.2429    magn:   -0.0000    constr:    0.0000
     atom:   97    charge:    2.2199    magn:    0.0002    constr:    0.0000
     atom:   98    charge:    2.2486    magn:    0.0003    constr:    0.0000

     total cpu time spent up to now is     2516.6 secs

     End of self-consistent calculation

 ------ SPIN UP ------------


          k = 0.0000 0.0000 0.0000 (  9666 PWs)   bands (ev):

   -28.9854 -28.7656 -28.5888 -28.5731 -28.5612 -28.5097 -28.4435 -28.0767
   -27.8817 -27.8672 -27.8612 -27.7778 -27.7567 -27.6439 -27.5391 -27.5293
   -27.5093 -27.3687 -27.3226 -26.8499 -26.6728 -26.6648 -26.6637 -26.6576
   -26.6537 -26.6514 -26.6414 -26.6211 -26.6023 -26.4661 -26.4589 -26.3656
   -26.3210 -26.3171 -26.2933 -26.1502 -26.1261 -25.9803 -25.9741 -25.9571
   -25.9454 -25.8743 -25.8562 -25.8037 -25.7885 -25.7850 -25.7720 -22.5213
   -19.6514 -16.4582 -15.7199 -15.7198 -15.7069 -15.6865 -15.6806 -15.6670
   -15.6332 -15.6138 -15.5936 -15.5392 -15.4319 -15.0502 -14.8404 -14.8399
   -14.8190 -14.7832 -14.7591 -14.5111 -14.3871 -14.3810 -14.3617 -14.3614
   -14.3403 -14.3336 -14.3270 -14.2897 -14.2330 -14.0595 -14.0023 -13.4009
   -13.2319 -13.2305 -13.1787 -13.1531 -13.0613 -12.8893 -12.8714 -12.8186
   -12.7590 -12.6540 -12.5892 -11.6908 -11.6592 -11.5909 -11.5610 -11.5228
   -11.5142 -11.5093 -11.4959 -11.4846 -11.3999 -11.3972 -11.2817 -11.2421
   -11.0447 -11.0000 -10.9911 -10.9762 -10.9445 -10.9359 -10.9063 -10.8994
   -10.8639 -10.8457 -10.8389 -10.8240 -10.8196 -10.8088 -10.7795 -10.6592
   -10.6372 -10.4754 -10.0189 -10.0141  -9.9886  -9.9788  -9.8800  -9.8648
    -9.7861  -9.7715  -9.7662  -9.6853  -9.6808  -9.6613  -9.2865  -9.2857
    -9.2436  -9.2380  -9.1997  -9.1945  -9.1759  -9.1694  -9.1669  -9.1379
    -9.0916  -9.0636  -9.0631  -9.0479  -8.9972  -8.9621  -8.8906  -8.7987
    -8.7698  -8.7543  -8.6643  -8.5326  -8.2712  -8.0037  -7.6692  -7.4970
    -7.4910  -7.4867  -7.4841  -7.4759  -7.4722  -7.4656  -7.4439  -7.4250
    -7.3063  -7.2133  -7.1704  -7.1696  -7.1279  -7.1053  -6.8865  -6.8332
    -6.7971  -6.7601  -6.7503  -6.7285  -6.6556  -6.5214  -6.2376  -6.2310
    -5.8012  -5.7629  -5.7485  -5.7345  -5.6697  -5.6211  -5.4728  -5.4353
    -5.4313  -5.4253  -5.2798  -4.4948  -1.6523  -1.2024  -0.9859  -0.9738
    -0.9663  -0.9620  -0.9568  -0.9365  -0.8966  -0.5721  -0.5632  -0.5609
    -0.5515  -0.5480  -0.5407  -0.2473  -0.2390  -0.2365  -0.2331  -0.2321
    -0.2124   0.1841   0.3402   0.3408   0.3415   0.3463   0.3552   0.3563
     0.4673   0.5966   0.7244   0.7245   0.7251   0.7262   0.7345   0.7547
     0.8203   0.8316   0.8319   0.8357   0.8379   0.8987   0.9676   0.9884
     1.0611   1.0666   1.0683   1.0970   1.1081

 ------ SPIN DOWN ----------


          k = 0.0000 0.0000 0.0000 (  9666 PWs)   bands (ev):

   -28.9806 -28.7646 -28.5846 -28.5709 -28.5598 -28.4984 -28.4363 -28.0732
   -27.8747 -27.8570 -27.8569 -27.7713 -27.7531 -27.6427 -27.5289 -27.5197
   -27.5048 -27.3517 -27.3149 -26.8373 -26.6661 -26.6622 -26.6598 -26.6500
   -26.6498 -26.6398 -26.6373 -26.6061 -26.5969 -26.4616 -26.4526 -26.3589
   -26.3151 -26.3103 -26.2879 -26.1374 -26.1196 -25.9706 -25.9685 -25.9490
   -25.9399 -25.8688 -25.8466 -25.8010 -25.7839 -25.7799 -25.7663 -22.2798
   -19.1299 -16.3560 -15.7178 -15.7150 -15.7041 -15.6852 -15.6783 -15.6642
   -15.6313 -15.6094 -15.5891 -15.5203 -15.4191 -15.0357 -14.8394 -14.8360
   -14.8143 -14.7770 -14.7514 -14.4974 -14.3826 -14.3751 -14.3598 -14.3597
   -14.3382 -14.3311 -14.3216 -14.2787 -14.2149 -14.0264 -13.9731 -13.3963
   -13.2298 -13.2285 -13.1703 -13.1451 -13.0499 -12.8825 -12.8662 -12.8080
   -12.7435 -12.6339 -12.5639 -11.6668 -11.6549 -11.5845 -11.5565 -11.5185
   -11.5113 -11.5049 -11.4928 -11.4811 -11.3875 -11.3861 -11.2639 -11.2234
   -11.0191 -10.9910 -10.9836 -10.9718 -10.9429 -10.9009 -10.8938 -10.8888
   -10.8436 -10.8374 -10.8203 -10.8163 -10.8029 -10.7674 -10.7552 -10.6437
   -10.6043 -10.4589 -10.0168 -10.0128  -9.9869  -9.9667  -9.8703  -9.8428
    -9.7688  -9.7537  -9.7456  -9.6444  -9.6431  -9.6160  -9.2803  -9.2770
    -9.2419  -9.2342  -9.1732  -9.1707  -9.1700  -9.1642  -9.1538  -9.1361
    -9.0617  -9.0453  -8.9946  -8.9754  -8.9686  -8.9561  -8.8787  -8.7965
    -8.7647  -8.7532  -8.6153  -8.4949  -8.2271  -7.9385  -7.6457  -7.4818
    -7.4804  -7.4746  -7.4666  -7.4643  -7.4506  -7.4361  -7.3938  -7.3932
    -7.1896  -7.1667  -7.1627  -7.1295  -7.1246  -7.0955  -6.8686  -6.8086
    -6.7720  -6.7394  -6.7213  -6.7111  -6.5050  -6.3852  -6.1651  -6.1568
    -5.7686  -5.7418  -5.7214  -5.7133  -5.6063  -5.5951  -5.4653  -5.4191
    -5.4137  -5.4056  -4.9737  -2.4459  -1.6497  -1.2013  -0.9858  -0.9732
    -0.9656  -0.9605  -0.9528  -0.9308  -0.8911  -0.5718  -0.5629  -0.5591
    -0.5508  -0.5450  -0.5385  -0.2471  -0.2383  -0.2361  -0.2326  -0.2304
    -0.2070   0.1865   0.3408   0.3413   0.3429   0.3477   0.3616   0.3617
     0.4704   0.6626   0.7248   0.7250   0.7259   0.7269   0.7377   0.7737
     0.8207   0.8319   0.8333   0.8382   0.8391   0.9498   0.9673   0.9799
     1.0720   1.0806   1.0893   1.1319   1.1347

     highest occupied, lowest unoccupied level (ev):    -4.4948   -2.4459

!    total energy              =   -1644.88196464 Ry
     Harris-Foulkes estimate   =   -1644.88196481 Ry
     estimated scf accuracy    <       0.00000010 Ry

[...]
    -9.0571  -9.0403  -8.9899  -8.9695  -8.9622  -8.9509  -8.8732  -8.7897
    -8.7583  -8.7460  -8.6103  -8.4881  -8.2204  -7.9344  -7.6485  -7.4796
    -7.4796  -7.4736  -7.4661  -7.4632  -7.4496  -7.4362  -7.3948  -7.3946
    -7.1883  -7.1629  -7.1591  -7.1287  -7.1208  -7.0917  -6.8657  -6.8126
    -6.7686  -6.7432  -6.7247  -6.7145  -6.5076  -6.3866  -6.1618  -6.1542
    -5.7785  -5.7517  -5.7301  -5.7216  -5.6149  -5.6031  -5.4755  -5.4294
    -5.4243  -5.4162  -4.9777  -2.3968  -1.6481  -1.2016  -0.9847  -0.9721
    -0.9647  -0.9593  -0.9522  -0.9303  -0.8907  -0.5721  -0.5631  -0.5596
    -0.5510  -0.5455  -0.5390  -0.2468  -0.2380  -0.2358  -0.2323  -0.2302
    -0.2069   0.1862   0.3416   0.3421   0.3436   0.3484   0.3621   0.3622
     0.4719   0.6640   0.7244   0.7246   0.7254   0.7265   0.7372   0.7744
     0.8203   0.8316   0.8330   0.8378   0.8387   0.9561   0.9682   0.9794
     1.0891   1.0992   1.1068   1.1519   1.1534

     highest occupied, lowest unoccupied level (ev):    -4.5279   -2.3968

!    total energy              =   -1644.88503527 Ry
     Harris-Foulkes estimate   =   -1644.88499657 Ry
     estimated scf accuracy    <       0.00000041 Ry

     total magnetization       =     1.00 Bohr mag/cell
     absolute magnetization    =     1.39 Bohr mag/cell

     convergence has been achieved in   2 iterations

     Using ACE for calculation of exact exchange

     total energy              =   -1644.88503751 Ry
     Harris-Foulkes estimate   =   -1644.88499881 Ry
     est. exchange err (dexx)  =       0.00000224 Ry
     - averaged Fock potential =     187.86346758 Ry
     + Fock energy (ACE)       =     -93.93261262 Ry

     EXX: now go back to refine exchange calculation

     total cpu time spent up to now is     7276.5 secs

     Self-consistent Calculation

     iteration #  1     ecut=    10.00 Ry     beta= 0.70
     CG style diagonalization
     ethr =  5.46E-10,  avg # of iterations = 16.2

     negative rho (up, down):  1.555E+01 1.379E-03

     total cpu time spent up to now is     7293.6 secs

     total energy              =   -1644.88503224 Ry
     Harris-Foulkes estimate   =   -1644.88503980 Ry
     estimated scf accuracy    <       0.00000138 Ry

     total magnetization       =     1.00 Bohr mag/cell
     absolute magnetization    =     1.39 Bohr mag/cell

     iteration #  2     ecut=    10.00 Ry     beta= 0.70
     CG style diagonalization
     ethr =  3.54E-10,  avg # of iterations =  3.8

     negative rho (up, down):  1.555E+01 1.379E-03

     total cpu time spent up to now is     7297.1 secs

     total energy              =   -1644.88502199 Ry
     Harris-Foulkes estimate   =   -1644.88503355 Ry
     estimated scf accuracy    <       0.00000144 Ry

     total magnetization       =     1.00 Bohr mag/cell
     absolute magnetization    =     1.39 Bohr mag/cell

     iteration #  3     ecut=    10.00 Ry     beta= 0.70
     CG style diagonalization
     ethr =  3.54E-10,  avg # of iterations =  3.5

     negative rho (up, down):  1.555E+01 1.389E-03
 
     Magnetic moment per site:
     atom:    1    charge:    0.6460    magn:   -0.0000    constr:    0.0000
     atom:    2    charge:    0.6502    magn:    0.0004    constr:    0.0000
     atom:    3    charge:    0.6495    magn:    0.0007    constr:    0.0000
     atom:    4    charge:    0.6400    magn:   -0.0000    constr:    0.0000
     atom:    5    charge:    0.6542    magn:    0.0000    constr:    0.0000
     atom:    6    charge:    0.6554    magn:    0.0000    constr:    0.0000
     atom:    7    charge:    0.6458    magn:   -0.0000    constr:    0.0000
     atom:    8    charge:    0.6268    magn:    0.0001    constr:    0.0000
     atom:    9    charge:    0.6513    magn:   -0.0004    constr:    0.0000
     atom:   10    charge:    0.6622    magn:    0.0025    constr:    0.0000
     atom:   11    charge:    0.6301    magn:    0.0003    constr:    0.0000
     atom:   12    charge:    0.6472    magn:    0.0001    constr:    0.0000
     atom:   13    charge:    0.6745    magn:    0.0000    constr:    0.0000
     atom:   14    charge:    0.6554    magn:    0.0000    constr:    0.0000
     atom:   15    charge:    0.6237    magn:   -0.0001    constr:    0.0000
     atom:   16    charge:    0.6115    magn:   -0.0000    constr:    0.0000
     atom:   17    charge:    0.6355    magn:    0.0010    constr:    0.0000
     atom:   18    charge:    0.6028    magn:    0.0049    constr:    0.0000
     atom:   19    charge:    0.6387    magn:   -0.0005    constr:    0.0000
     atom:   20    charge:    0.6472    magn:    0.0001    constr:    0.0000
     atom:   21    charge:    0.6542    magn:    0.0000    constr:    0.0000
     atom:   22    charge:    0.6347    magn:    0.0000    constr:    0.0000
     atom:   23    charge:    0.6297    magn:    0.0003    constr:    0.0000
     atom:   24    charge:    0.6270    magn:   -0.0009    constr:    0.0000
     atom:   25    charge:    1.3775    magn:   -0.0294    constr:    0.0000
     atom:   26    charge:    0.6028    magn:    0.0049    constr:    0.0000
     atom:   27    charge:    0.6301    magn:    0.0003    constr:    0.0000
     atom:   28    charge:    0.6400    magn:   -0.0000    constr:    0.0000
     atom:   29    charge:    0.6332    magn:    0.0000    constr:    0.0000
     atom:   30    charge:    0.6646    magn:    0.0000    constr:    0.0000
     atom:   31    charge:    0.6650    magn:   -0.0005    constr:    0.0000
     atom:   32    charge:    0.6270    magn:   -0.0009    constr:    0.0000
     atom:   33    charge:    0.6355    magn:    0.0010    constr:    0.0000
     atom:   34    charge:    0.6622    magn:    0.0025    constr:    0.0000
     atom:   35    charge:    0.6495    magn:    0.0007    constr:    0.0000
     atom:   36    charge:    0.6136    magn:    0.0003    constr:    0.0000
     atom:   37    charge:    0.6313    magn:   -0.0000    constr:    0.0000
     atom:   38    charge:    0.6646    magn:    0.0000    constr:    0.0000
     atom:   39    charge:    0.6297    magn:    0.0003    constr:    0.0000
     atom:   40    charge:    0.6115    magn:   -0.0000    constr:    0.0000
     atom:   41    charge:    0.6513    magn:   -0.0004    constr:    0.0000
     atom:   42    charge:    0.6502    magn:    0.0004    constr:    0.0000
     atom:   43    charge:    0.6234    magn:   -0.0000    constr:    0.0000
     atom:   44    charge:    0.6136    magn:    0.0003    constr:    0.0000
     atom:   45    charge:    0.6332    magn:    0.0000    constr:    0.0000
     atom:   46    charge:    0.6347    magn:    0.0000    constr:    0.0000
     atom:   47    charge:    0.6237    magn:   -0.0001    constr:    0.0000
     atom:   48    charge:    0.6268    magn:    0.0001    constr:    0.0000
     atom:   49    charge:    0.6460    magn:   -0.0000    constr:    0.0000
     atom:   50    charge:    2.2492    magn:    0.0003    constr:    0.0000
     atom:   51    charge:    2.1909    magn:   -0.0001    constr:    0.0000
     atom:   52    charge:    2.1299    magn:    0.0015    constr:    0.0000
     atom:   53    charge:    2.2248    magn:   -0.0001    constr:    0.0000
     atom:   54    charge:    2.2173    magn:    0.0001    constr:    0.0000
     atom:   55    charge:    2.1433    magn:    0.0000    constr:    0.0000
     atom:   56    charge:    2.1791    magn:   -0.0000    constr:    0.0000
     atom:   57    charge:    2.2206    magn:    0.0002    constr:    0.0000
     atom:   58    charge:    2.2401    magn:    0.0027    constr:    0.0000
     atom:   59    charge:    2.1477    magn:    0.0036    constr:    0.0000
     atom:   60    charge:    2.1915    magn:    0.0072    constr:    0.0000
     atom:   61    charge:    2.2472    magn:    0.0008    constr:    0.0000
     atom:   62    charge:    2.1680    magn:   -0.0001    constr:    0.0000
     atom:   63    charge:    2.1433    magn:    0.0000    constr:    0.0000
     atom:   64    charge:    2.2436    magn:    0.0000    constr:    0.0000
     atom:   65    charge:    2.2654    magn:    0.0002    constr:    0.0000
     atom:   66    charge:    2.2628    magn:    0.0106    constr:    0.0000
     atom:   67    charge:    1.4002    magn:    0.0921    constr:    0.0000
     atom:   68    charge:    2.2715    magn:   -0.0016    constr:    0.0000
     atom:   69    charge:    2.2472    magn:    0.0008    constr:    0.0000
     atom:   70    charge:    2.2173    magn:    0.0001    constr:    0.0000
     atom:   71    charge:    2.2431    magn:   -0.0000    constr:    0.0000
     atom:   72    charge:    2.1910    magn:    0.0001    constr:    0.0000
     atom:   73    charge:    2.1925    magn:    0.0008    constr:    0.0000
     atom:   74    charge:    2.2231    magn:   -0.0018    constr:    0.0000
     atom:   75    charge:    1.4002    magn:    0.0921    constr:    0.0000
     atom:   76    charge:    2.1915    magn:    0.0072    constr:    0.0000
     atom:   77    charge:    2.2248    magn:   -0.0001    constr:    0.0000
     atom:   78    charge:    2.2400    magn:   -0.0000    constr:    0.0000
     atom:   79    charge:    2.1951    magn:   -0.0000    constr:    0.0000
     atom:   80    charge:    2.0989    magn:   -0.0000    constr:    0.0000
     atom:   81    charge:    2.1925    magn:    0.0008    constr:    0.0000
     atom:   82    charge:    2.2628    magn:    0.0106    constr:    0.0000
     atom:   83    charge:    2.1477    magn:    0.0036    constr:    0.0000
     atom:   84    charge:    2.1299    magn:    0.0015    constr:    0.0000
     atom:   85    charge:    2.2237    magn:    0.0002    constr:    0.0000
     atom:   86    charge:    2.2604    magn:   -0.0001    constr:    0.0000
     atom:   87    charge:    2.1951    magn:   -0.0000    constr:    0.0000
     atom:   88    charge:    2.1910    magn:    0.0001    constr:    0.0000
     atom:   89    charge:    2.2654    magn:    0.0002    constr:    0.0000
     atom:   90    charge:    2.2401    magn:    0.0027    constr:    0.0000
     atom:   91    charge:    2.1909    magn:   -0.0001    constr:    0.0000
     atom:   92    charge:    2.2503    magn:   -0.0000    constr:    0.0000
     atom:   93    charge:    2.2237    magn:    0.0002    constr:    0.0000
     atom:   94    charge:    2.2400    magn:   -0.0000    constr:    0.0000
     atom:   95    charge:    2.2431    magn:   -0.0000    constr:    0.0000
     atom:   96    charge:    2.2436    magn:    0.0000    constr:    0.0000
     atom:   97    charge:    2.2206    magn:    0.0002    constr:    0.0000
     atom:   98    charge:    2.2492    magn:    0.0003    constr:    0.0000

     total cpu time spent up to now is     7300.3 secs

     End of self-consistent calculation

 ------ SPIN UP ------------


          k = 0.0000 0.0000 0.0000 (  9666 PWs)   bands (ev):

   -28.9710 -28.7500 -28.5752 -28.5600 -28.5479 -28.4961 -28.4292 -28.0621
   -27.8679 -27.8531 -27.8476 -27.7642 -27.7434 -27.6304 -27.5249 -27.5148
   -27.4962 -27.3547 -27.3087 -26.8351 -26.6590 -26.6506 -26.6499 -26.6436
   -26.6400 -26.6374 -26.6274 -26.6064 -26.5890 -26.4525 -26.4448 -26.3518
   -26.3067 -26.3027 -26.2797 -26.1353 -26.1122 -25.9663 -25.9597 -25.9427
   -25.9312 -25.8599 -25.8420 -25.7900 -25.7739 -25.7714 -25.7575 -22.5096
   -19.6558 -16.4483 -15.7104 -15.7103 -15.6977 -15.6774 -15.6712 -15.6579
   -15.6234 -15.6042 -15.5842 -15.5297 -15.4228 -15.0409 -14.8318 -14.8306
   -14.8104 -14.7740 -14.7507 -14.5018 -14.3775 -14.3716 -14.3522 -14.3520
   -14.3307 -14.3242 -14.3176 -14.2802 -14.2241 -14.0509 -13.9942 -13.3928
   -13.2242 -13.2227 -13.1702 -13.1455 -13.0526 -12.8796 -12.8618 -12.8094
   -12.7501 -12.6454 -12.5813 -11.6832 -11.6515 -11.5839 -11.5534 -11.5156
   -11.5073 -11.5005 -11.4873 -11.4768 -11.3919 -11.3905 -11.2738 -11.2349
   -11.0354 -10.9925 -10.9845 -10.9690 -10.9375 -10.9289 -10.8995 -10.8929
   -10.8574 -10.8391 -10.8325 -10.8176 -10.8131 -10.8026 -10.7737 -10.6536
   -10.6310 -10.4698 -10.0147 -10.0098  -9.9840  -9.9737  -9.8751  -9.8558
    -9.7790  -9.7648  -9.7598  -9.6796  -9.6754  -9.6566  -9.2810  -9.2788
    -9.2378  -9.2331  -9.1935  -9.1876  -9.1708  -9.1644  -9.1617  -9.1330
    -9.0874  -9.0592  -9.0584  -9.0426  -8.9922  -8.9566  -8.8852  -8.7917
    -8.7634  -8.7470  -8.6592  -8.5267  -8.2662  -8.0015  -7.6622  -7.4948
    -7.4885  -7.4843  -7.4812  -7.4739  -7.4701  -7.4635  -7.4413  -7.4244
    -7.3057  -7.2141  -7.1666  -7.1656  -7.1240  -7.1015  -6.8843  -6.8335
    -6.7945  -6.7615  -6.7522  -6.7311  -6.6585  -6.5261  -6.2369  -6.2297
    -5.8079  -5.7698  -5.7556  -5.7415  -5.6780  -5.6293  -5.4822  -5.4458
    -5.4410  -5.4346  -5.2926  -4.5300  -1.6506  -1.2027  -0.9848  -0.9725
    -0.9653  -0.9607  -0.9562  -0.9359  -0.8961  -0.5723  -0.5633  -0.5610
    -0.5517  -0.5485  -0.5410  -0.2469  -0.2385  -0.2362  -0.2328  -0.2319
    -0.2123   0.1844   0.3412   0.3415   0.3422   0.3470   0.3557   0.3568
     0.4689   0.6172   0.7240   0.7241   0.7246   0.7258   0.7337   0.7567
     0.8201   0.8313   0.8315   0.8354   0.8375   0.9040   0.9678   0.9847
     1.0801   1.0863   1.0877   1.1163   1.1272

 ------ SPIN DOWN ----------


          k = 0.0000 0.0000 0.0000 (  9666 PWs)   bands (ev):

   -28.9673 -28.7513 -28.5713 -28.5580 -28.5466 -28.4856 -28.4229 -28.0601
   -27.8615 -27.8438 -27.8436 -27.7580 -27.7401 -27.6295 -27.5155 -27.5062
   -27.4918 -27.3387 -27.3015 -26.8240 -26.6528 -26.6484 -26.6463 -26.6366
   -26.6366 -26.6264 -26.6237 -26.5926 -26.5839 -26.4480 -26.4391 -26.3456
   -26.3014 -26.2963 -26.2746 -26.1236 -26.1060 -25.9572 -25.9547 -25.9354
   -25.9262 -25.8548 -25.8331 -25.7875 -25.7695 -25.7667 -25.7522 -22.2682
   -19.1075 -16.3467 -15.7086 -15.7059 -15.6952 -15.6762 -15.6690 -15.6553
   -15.6216 -15.5998 -15.5798 -15.5108 -15.4100 -15.0268 -14.8309 -14.8270
   -14.8058 -14.7681 -14.7432 -14.4882 -14.3735 -14.3662 -14.3505 -14.3504
   -14.3288 -14.3219 -14.3126 -14.2691 -14.2061 -14.0166 -13.9642 -13.3889
   -13.2223 -13.2209 -13.1625 -13.1376 -13.0413 -12.8734 -12.8571 -12.7989
   -12.7344 -12.6247 -12.5551 -11.6598 -11.6477 -11.5780 -11.5492 -11.5113
   -11.5047 -11.4965 -11.4843 -11.4736 -11.3810 -11.3780 -11.2556 -11.2158
   -11.0136 -10.9841 -10.9777 -10.9650 -10.9364 -10.8944 -10.8882 -10.8826
   -10.8372 -10.8312 -10.8141 -10.8101 -10.7965 -10.7614 -10.7486 -10.6382
   -10.5972 -10.4528 -10.0127 -10.0087  -9.9824  -9.9620  -9.8656  -9.8396
    -9.7630  -9.7482  -9.7411  -9.6398  -9.6371  -9.6099  -9.2751  -9.2735
    -9.2364  -9.2295  -9.1689  -9.1657  -9.1655  -9.1591  -9.1489  -9.1311
    -9.0572  -9.0404  -8.9900  -8.9696  -8.9624  -8.9509  -8.8732  -8.7898
    -8.7584  -8.7461  -8.6102  -8.4881  -8.2204  -7.9345  -7.6487  -7.4797
    -7.4797  -7.4737  -7.4662  -7.4633  -7.4498  -7.4364  -7.3950  -7.3949
    -7.1885  -7.1630  -7.1592  -7.1289  -7.1209  -7.0919  -6.8658  -6.8128
    -6.7687  -6.7435  -6.7250  -6.7147  -6.5079  -6.3868  -6.1619  -6.1541
    -5.7790  -5.7521  -5.7305  -5.7220  -5.6154  -5.6035  -5.4759  -5.4299
    -5.4247  -5.4167  -4.9780  -2.3965  -1.6481  -1.2016  -0.9847  -0.9721
    -0.9646  -0.9593  -0.9522  -0.9304  -0.8908  -0.5721  -0.5631  -0.5596
    -0.5510  -0.5455  -0.5391  -0.2468  -0.2380  -0.2358  -0.2323  -0.2302
    -0.2070   0.1861   0.3416   0.3421   0.3436   0.3484   0.3620   0.3622
     0.4719   0.6635   0.7244   0.7246   0.7254   0.7265   0.7372   0.7742
     0.8203   0.8316   0.8329   0.8377   0.8386   0.9560   0.9682   0.9793
     1.0893   1.0995   1.1069   1.1523   1.1536

     highest occupied, lowest unoccupied level (ev):    -4.5300   -2.3965

!    total energy              =   -1644.88502135 Ry
     Harris-Foulkes estimate   =   -1644.88502306 Ry
     estimated scf accuracy    <       0.00000014 Ry

     total magnetization       =     1.00 Bohr mag/cell
     absolute magnetization    =     1.39 Bohr mag/cell

     convergence has been achieved in   3 iterations

     Using ACE for calculation of exact exchange

!!   total energy              =   -1644.88502178 Ry
     Harris-Foulkes estimate   =   -1644.88502349 Ry
     est. exchange err (dexx)  =       0.00000042 Ry
     - averaged Fock potential =     187.86604620 Ry
     + Fock energy (ACE)       =     -93.93343401 Ry

     EXX self-consistency reached

     Writing output data file C2Cn.save/
 
     init_run     :      0.83s CPU      0.91s WALL (       1 calls)
     electrons    :    194.18s CPU    199.22s WALL (       7 calls)

     Called by init_run:
     wfcinit      :      0.40s CPU      0.43s WALL (       1 calls)
     potinit      :      0.25s CPU      0.26s WALL (       1 calls)
     hinit0       :      0.12s CPU      0.12s WALL (       1 calls)

     Called by electrons:
     c_bands      :    171.88s CPU    175.36s WALL (      36 calls)
     sum_band     :      3.14s CPU      3.21s WALL (      36 calls)
     v_of_rho     :      0.98s CPU      1.02s WALL (      38 calls)
     newd         :      0.28s CPU      0.32s WALL (      37 calls)
     PAW_pot      :      9.99s CPU     10.08s WALL (      38 calls)
     mix_rho      :      0.13s CPU      0.18s WALL (      36 calls)

     Called by c_bands:
     init_us_2    :      1.57s CPU      1.68s WALL (    3590 calls)
     rcgdiagg     :    164.19s CPU    167.50s WALL (      85 calls)
     wfcrot       :      7.90s CPU      8.07s WALL (      73 calls)

     Called by sum_band:
     sum_band:bec :      0.04s CPU      0.04s WALL (      72 calls)
     addusdens    :      0.22s CPU      0.23s WALL (      36 calls)

     Called by *cgdiagg:
     h_psi        :    106.49s CPU    108.67s WALL (   81010 calls)
     s_psi        :     27.58s CPU     28.27s WALL (  161947 calls)
     rdiaghg      :      1.17s CPU      1.21s WALL (      73 calls)

     Called by h_psi:
     h_psi:pot    :     92.06s CPU     93.99s WALL (   81010 calls)
     h_psi:calbec :     25.94s CPU     26.46s WALL (   81010 calls)
     vloc_psi     :     50.41s CPU     51.52s WALL (   81010 calls)
     add_vuspsi   :     15.19s CPU     15.55s WALL (   81010 calls)
     hs_1psi      :    116.17s CPU    118.52s WALL (   80937 calls)
     s_1psi       :     30.94s CPU     31.51s WALL (   80937 calls)

     General routines
     calbec       :     55.88s CPU     57.10s WALL (  223766 calls)
     fft          :      0.46s CPU      0.47s WALL (     625 calls)
     ffts         :      0.04s CPU      0.04s WALL (      72 calls)
     fftw         :     48.12s CPU     49.17s WALL (  188980 calls)
     fftc         :    407.79s CPU    411.70s WALL (  672280 calls)
     fftcw        :      1.94s CPU      1.99s WALL (    6874 calls)
 
     Parallel routines
     fft_scatt_xy :     13.34s CPU     13.45s WALL (  868831 calls)
     fft_scatt_yz :    300.74s CPU    303.97s WALL (  868831 calls)

     EXX routines
     exx_grid     :      0.00s CPU      0.00s WALL (       1 calls)
     exxinit      :      2.09s CPU      2.19s WALL (       7 calls)
     vexx         :   8218.27s CPU   8268.47s WALL (      14 calls)
     matcalc      :     12.33s CPU     12.55s WALL (   61733 calls)
     aceupdate    :      0.02s CPU      0.05s WALL (      14 calls)
     vexxace      :     14.26s CPU     14.53s WALL (   61693 calls)
     aceinit      :   8218.34s CPU   8268.58s WALL (      14 calls)

     EXX+US  routines
     becxx        :      0.01s CPU      0.02s WALL (       7 calls)
     addusxx      :   3425.33s CPU   3446.79s WALL (  672280 calls)
     newdxx       :   3451.18s CPU   3470.28s WALL (  672280 calls)
     qvan_init    :      0.04s CPU      0.05s WALL (      14 calls)
     nlxx_pot     :      2.08s CPU      2.21s WALL (    3430 calls)

     EXX+PAW routines
     PAW_newdxx   :    879.08s CPU    885.94s WALL (  672280 calls)
 
     PWSCF        :      2h20m CPU      2h21m WALL

 
   This run was terminated on:   3: 4:53  21Sep2021            

=------------------------------------------------------------------------------=
   JOB DONE.
=------------------------------------------------------------------------------=
