
     Program PWSCF v.6.4.1 starts on  2Aug2021 at 11:46: 0 

     This program is part of the open-source Quantum ESPRESSO suite
     for quantum simulation of materials; please cite
         "P. Giannozzi et al., J. Phys.:Condens. Matter 21 395502 (2009);
         "P. Giannozzi et al., J. Phys.:Condens. Matter 29 465901 (2017);
          URL http://www.quantum-espresso.org", 
     in publications or presentations arising from this work. More details at
     http://www.quantum-espresso.org/quote

     Parallel version (MPI), running on   128 processors

     MPI processes distributed on     4 nodes
     R & G space division:  proc/nbgrp/npool/nimage =     128
     Waiting for input...
     Reading input from standard input

     Current dimensions of program PWSCF are:
     Max number of different atomic species (ntypx) = 10
     Max number of k-points (npk) =  40000
     Max angular momentum in pseudopotentials (lmaxx) =  3

     IMPORTANT: XC functional enforced from input :
     Exchange-correlation      = HSE ( 1  4 12  4 0 0)
     EXX-fraction              =        0.25
     Using LIBXC version       =    4   3   4
     Any further DFT definition will be discarded
     Please, verify this is what you really want

               file N.pbe-n-kjpaw_psl.1.0.0.UPF: wavefunction(s)  2S renormalized
               file C.pbe-n-kjpaw_psl.1.0.0.UPF: wavefunction(s)  2S 2P renormalized
               file C.pbe-n-kjpaw_psl.1.0.0.UPF: wavefunction(s)  2S 2P renormalized
               file C.pbe-n-kjpaw_psl.1.0.0.UPF: wavefunction(s)  2S 2P renormalized
     EXX fraction changed:   0.32
     EXX Screening parameter changed:    0.0455000

     --------------------------------------------
     Parameters for DFT-D3 Dispersion Correction:
     --------------------------------------------
       Reference C6 values for interpolation: 

         atom   Coordination number   C6
         B          0.000           214.36
         B          0.971           150.74
         B          1.944           106.23
         B          2.913            62.89
         B          4.586            56.06
         C1         0.000            98.23
         C1         0.987            86.49
         C1         1.998            58.72
         C1         2.999            51.56
         C1         3.984            36.41
         C2         0.000            98.23
         C2         0.987            86.49
         C2         1.998            58.72
         C2         2.999            51.56
         C2         3.984            36.41
         C3         0.000            98.23
         C3         0.987            86.49
         C3         1.998            58.72
         C3         2.999            51.56
         C3         3.984            36.41
         N          0.000            50.54
         N          0.994            44.25
         N          2.014            39.35
         N          2.990            31.16

       Values used:

         atom   Coordination number  R0_AB[au]  C6      C8
         B          3.326            3.039     62.90   2506.23
         B          3.317            3.039     62.90   2506.44
         B          3.318            3.039     62.90   2506.42
         B          3.323            3.039     62.90   2506.30
         B          3.325            3.039     62.90   2506.25
         B          3.323            3.039     62.90   2506.30
         B          3.326            3.039     62.90   2506.24
         B          3.323            3.039     62.90   2506.30
         B          3.321            3.039     62.90   2506.35
         B          3.306            3.039     62.91   2506.68
         B          3.318            3.039     62.90   2506.41
         B          3.324            3.039     62.90   2506.27
         B          3.322            3.039     62.90   2506.31
         B          3.323            3.039     62.90   2506.30
         B          3.322            3.039     62.90   2506.31
         B          3.324            3.039     62.90   2506.29
         B          3.294            3.039     62.92   2506.96
         B          3.282            3.039     62.92   2507.23
         B          3.320            3.039     62.90   2506.38
         B          3.324            3.039     62.90   2506.27
         B          3.325            3.039     62.90   2506.25
         B          3.322            3.039     62.90   2506.33
         B          3.317            3.039     62.90   2506.44
         B          3.306            3.039     62.91   2506.69
         C2         3.241            2.750     49.55   1433.01
         B          3.282            3.039     62.92   2507.23
         B          3.318            3.039     62.90   2506.41
         B          3.323            3.039     62.90   2506.30
         B          3.320            3.039     62.90   2506.38
         B          3.317            3.039     62.90   2506.44
         B          3.308            3.039     62.91   2506.64
         B          3.306            3.039     62.91   2506.69
         B          3.294            3.039     62.92   2506.96
         B          3.306            3.039     62.91   2506.68
         B          3.318            3.039     62.90   2506.42
         B          3.316            3.039     62.90   2506.46
         B          3.317            3.039     62.90   2506.45
         B          3.317            3.039     62.90   2506.44
         B          3.317            3.039     62.90   2506.44
         B          3.324            3.039     62.90   2506.29
         B          3.321            3.039     62.90   2506.35
         B          3.317            3.039     62.90   2506.44
         B          3.319            3.039     62.90   2506.40
         B          3.316            3.039     62.90   2506.46
         B          3.320            3.039     62.90   2506.38
         B          3.322            3.039     62.90   2506.33
         B          3.322            3.039     62.90   2506.31
         B          3.323            3.039     62.90   2506.30
         B          3.326            3.039     62.90   2506.23
         N          3.129            2.478     31.22    688.74
         N          3.128            2.478     31.22    688.75
         N          3.126            2.478     31.22    688.78
         N          3.128            2.478     31.22    688.76
         N          3.129            2.478     31.22    688.74
         N          3.128            2.478     31.22    688.75
         N          3.128            2.478     31.22    688.75
         N          3.128            2.478     31.22    688.76
         N          3.128            2.478     31.22    688.75
         N          3.125            2.478     31.22    688.79
         N          3.123            2.478     31.22    688.80
         N          3.129            2.478     31.22    688.74
         N          3.128            2.478     31.22    688.75
         N          3.128            2.478     31.22    688.75
         N          3.129            2.478     31.22    688.75
         N          3.129            2.478     31.22    688.75
         N          3.130            2.478     31.22    688.74
         C1         3.179            2.750     50.28   1454.13
         N          3.127            2.478     31.22    688.77
         N          3.129            2.478     31.22    688.74
         N          3.129            2.478     31.22    688.74
         N          3.128            2.478     31.22    688.75
         N          3.127            2.478     31.22    688.77
         N          3.124            2.478     31.22    688.80
         N          3.145            2.478     31.21    688.60
         C3         3.179            2.750     50.28   1454.13
         N          3.123            2.478     31.22    688.80
         N          3.128            2.478     31.22    688.76
         N          3.127            2.478     31.22    688.77
         N          3.126            2.478     31.22    688.77
         N          3.125            2.478     31.22    688.78
         N          3.124            2.478     31.22    688.80
         N          3.130            2.478     31.22    688.74
         N          3.125            2.478     31.22    688.79
         N          3.126            2.478     31.22    688.78
         N          3.126            2.478     31.22    688.77
         N          3.126            2.478     31.22    688.77
         N          3.126            2.478     31.22    688.77
         N          3.127            2.478     31.22    688.77
         N          3.129            2.478     31.22    688.75
         N          3.128            2.478     31.22    688.75
         N          3.128            2.478     31.22    688.75
         N          3.129            2.478     31.22    688.74
         N          3.126            2.478     31.22    688.77
         N          3.127            2.478     31.22    688.77
         N          3.128            2.478     31.22    688.75
         N          3.129            2.478     31.22    688.75
         N          3.128            2.478     31.22    688.76
         N          3.129            2.478     31.22    688.74

         Molecular C6 ( Ry / a.u.^6 ) =    437743.21


     gamma-point specific algorithms are used
     Message from routine setup :
     BEWARE: nonlinear core correction is not consistent with hybrid XC

     Subspace diagonalization in iterative solution of the eigenvalue problem:
     one sub-group per band group will be used
     scalapack distributed-memory algorithm (size of sub-group:  8*  8 procs)

     EXX: grid of k+q points same as grid of k-points
 
     Parallelization info
     --------------------
     sticks:   dense  smooth     PW     G-vecs:    dense   smooth      PW
     Min          60      60     13                 4976     4976     610
     Max          62      62     16                 5006     5006     636
     Sum        7857    7857   1953               638803   638803   79977
 


     bravais-lattice index     =            0
     lattice parameter (alat)  =      33.2346  a.u.
     unit-cell volume          =   36232.1621 (a.u.)^3
     number of atoms/cell      =           98
     number of atomic types    =            5
     number of electrons       =       391.00
     number of Kohn-Sham states=          245
     kinetic-energy cutoff     =      25.7300  Ry
     charge density cutoff     =     102.9200  Ry
     cutoff for Fock operator  =     102.9200  Ry
     convergence threshold     =      9.5E-03
     mixing beta               =       0.7000
     number of iterations used =            8  plain     mixing
     Exchange-correlation      = HSE ( 1  4 12  4 0 0)
     EXX-fraction              =        0.32
     Using LIBXC version       =    4   3   4

     celldm(1)=  33.234611  celldm(2)=   0.000000  celldm(3)=   0.000000
     celldm(4)=   0.000000  celldm(5)=   0.000000  celldm(6)=   0.000000

     crystal axes: (cart. coord. in units of alat)
               a(1) = (   1.001047   0.000089   0.000000 )  
               a(2) = (  -0.500446   0.866977   0.000000 )  
               a(3) = (   0.000000   0.000000   1.137204 )  

     reciprocal axes: (cart. coord. in units 2 pi/alat)
               b(1) = (  0.998903  0.576598  0.000000 )  
               b(2) = ( -0.000103  1.153374  0.000000 )  
               b(3) = (  0.000000  0.000000  0.879350 )  


     PseudoPot. # 1 for B  read from file:
     ./pseudo/B.pbe-n-kjpaw_psl.1.0.0.UPF
     MD5 check sum: 8c825a5969375aca5c2c6ad5945b3059
     Pseudo is Projector augmented-wave + core cor, Zval =  3.0
     Generated using "atomic" code by A. Dal Corso v.6.3
     Shape of augmentation charge: PSQ
     Using radial grid of 1059 points,  4 beta functions with: 
                l(1) =   0
                l(2) =   0
                l(3) =   1
                l(4) =   1
     Q(r) pseudized with 0 coefficients 


     PseudoPot. # 2 for N  read from file:
     ./pseudo/N.pbe-n-kjpaw_psl.1.0.0.UPF
     MD5 check sum: 14c48229446f9f2d411169a3abcbc3fa
     Pseudo is Projector augmented-wave + core cor, Zval =  5.0
     Generated using "atomic" code by A. Dal Corso v.6.3
     Shape of augmentation charge: PSQ
     Using radial grid of 1085 points,  4 beta functions with: 
                l(1) =   0
                l(2) =   0
                l(3) =   1
                l(4) =   1
     Q(r) pseudized with 0 coefficients 


     PseudoPot. # 3 for C  read from file:
     ./pseudo/C.pbe-n-kjpaw_psl.1.0.0.UPF
     MD5 check sum: 5f16ad9a65e90284d1d834d4ab3b0f7d
     Pseudo is Projector augmented-wave + core cor, Zval =  4.0
     Generated using "atomic" code by A. Dal Corso v.6.3
     Shape of augmentation charge: PSQ
     Using radial grid of 1073 points,  4 beta functions with: 
                l(1) =   0
                l(2) =   0
                l(3) =   1
                l(4) =   1
     Q(r) pseudized with 0 coefficients 


     PseudoPot. # 4 for C  read from file:
     ./pseudo/C.pbe-n-kjpaw_psl.1.0.0.UPF
     MD5 check sum: 5f16ad9a65e90284d1d834d4ab3b0f7d
     Pseudo is Projector augmented-wave + core cor, Zval =  4.0
     Generated using "atomic" code by A. Dal Corso v.6.3
     Shape of augmentation charge: PSQ
     Using radial grid of 1073 points,  4 beta functions with: 
                l(1) =   0
                l(2) =   0
                l(3) =   1
                l(4) =   1
     Q(r) pseudized with 0 coefficients 


     PseudoPot. # 5 for C  read from file:
     ./pseudo/C.pbe-n-kjpaw_psl.1.0.0.UPF
     MD5 check sum: 5f16ad9a65e90284d1d834d4ab3b0f7d
     Pseudo is Projector augmented-wave + core cor, Zval =  4.0
     Generated using "atomic" code by A. Dal Corso v.6.3
     Shape of augmentation charge: PSQ
     Using radial grid of 1073 points,  4 beta functions with: 
                l(1) =   0
                l(2) =   0
                l(3) =   1
                l(4) =   1
     Q(r) pseudized with 0 coefficients 


     atomic species   valence    mass     pseudopotential
        B              3.00    10.00000     B ( 1.00)
        N              5.00    14.00000     N ( 1.00)
        C1             4.00    12.00000     C ( 1.00)
        C2             4.00    12.00000     C ( 1.00)
        C3             4.00    12.00000     C ( 1.00)

     Starting magnetic structure 
     atomic species   magnetization
        B            0.000
        N            0.000
        C1           1.000
        C2           0.000
        C3           0.000

     No symmetry found



   Cartesian axes

     site n.     atom                  positions (alat units)
         1           B   tau(   1) = (  -0.0000493   0.0821150   0.5686018  )
         2           B   tau(   2) = (  -0.0715880   0.2061401   0.5686018  )
         3           B   tau(   3) = (  -0.1432592   0.3301978   0.5686018  )
         4           B   tau(   4) = (  -0.2148863   0.4541025   0.5686018  )
         5           B   tau(   5) = (  -0.2859565   0.5779657   0.5686018  )
         6           B   tau(   6) = (  -0.3572410   0.7019362   0.5686018  )
         7           B   tau(   7) = (  -0.4288284   0.8256282   0.5686018  )
         8           B   tau(   8) = (   0.1429049   0.0818351   0.5686018  )
         9           B   tau(   9) = (   0.0710828   0.2051108   0.5686018  )
        10           B   tau(  10) = (  -0.0002604   0.3301725   0.5686018  )
        11           B   tau(  11) = (  -0.0723716   0.4540409   0.5686018  )
        12           B   tau(  12) = (  -0.1438675   0.5780980   0.5686018  )
        13           B   tau(  13) = (  -0.2146592   0.7019775   0.5686018  )
        14           B   tau(  14) = (  -0.2859143   0.8254776   0.5686018  )
        15           B   tau(  15) = (   0.2863351   0.0818356   0.5686018  )
        16           B   tau(  16) = (   0.2148948   0.2048106   0.5686018  )
        17           B   tau(  17) = (   0.1431384   0.3273752   0.5686018  )
        18           B   tau(  18) = (   0.0700037   0.4552484   0.5686018  )
        19           B   tau(  19) = (  -0.0021244   0.5792705   0.5686018  )
        20           B   tau(  20) = (  -0.0719805   0.7026098   0.5686018  )
        21           B   tau(  21) = (  -0.1429105   0.8257287   0.5686018  )
        22           B   tau(  22) = (   0.4291464   0.0825334   0.5686018  )
        23           B   tau(  23) = (   0.3576482   0.2061818   0.5686018  )
        24           B   tau(  24) = (   0.2855397   0.3294081   0.5686018  )
        25           C2  tau(  25) = (   0.2161591   0.4532445   0.5686018  )
        26           B   tau(  26) = (   0.1413460   0.5788168   0.5686018  )
        27           B   tau(  27) = (   0.0712040   0.7027212   0.5686018  )
        28           B   tau(  28) = (  -0.0001067   0.8261117   0.5686018  )
        29           B   tau(  29) = (   0.5719685   0.0826533   0.5686018  )
        30           B   tau(  30) = (   0.5005754   0.2063666   0.5686018  )
        31           B   tau(  31) = (   0.4291406   0.3302796   0.5686018  )
        32           B   tau(  32) = (   0.3580948   0.4550773   0.5686018  )
        33           B   tau(  33) = (   0.2886547   0.5794169   0.5686018  )
        34           B   tau(  34) = (   0.2145328   0.7022052   0.5686018  )
        35           B   tau(  35) = (   0.1430115   0.8260331   0.5686018  )
        36           B   tau(  36) = (   0.7149805   0.0826847   0.5686018  )
        37           B   tau(  37) = (   0.6434632   0.2065403   0.5686018  )
        38           B   tau(  38) = (   0.5721697   0.3303717   0.5686018  )
        39           B   tau(  39) = (   0.5008662   0.4542427   0.5686018  )
        40           B   tau(  40) = (   0.4306770   0.5785564   0.5686018  )
        41           B   tau(  41) = (   0.3585110   0.7029511   0.5686018  )
        42           B   tau(  42) = (   0.2862842   0.8259929   0.5686018  )
        43           B   tau(  43) = (   0.8581604   0.0825849   0.5686018  )
        44           B   tau(  44) = (   0.7864839   0.2065324   0.5686018  )
        45           B   tau(  45) = (   0.7150052   0.3304001   0.5686018  )
        46           B   tau(  46) = (   0.6436980   0.4541476   0.5686018  )
        47           B   tau(  47) = (   0.5728967   0.5781747   0.5686018  )
        48           B   tau(  48) = (   0.5011820   0.7023892   0.5686018  )
        49           B   tau(  49) = (   0.4294624   0.8260512   0.5686018  )
        50           N   tau(  50) = (   0.0714391   0.0409527   0.5686018  )
        51           N   tau(  51) = (  -0.0003458   0.1644260   0.5686018  )
        52           N   tau(  52) = (  -0.0717361   0.2888202   0.5686018  )
        53           N   tau(  53) = (  -0.1435724   0.4127320   0.5686018  )
        54           N   tau(  54) = (  -0.2149376   0.5366011   0.5686018  )
        55           N   tau(  55) = (  -0.2859291   0.6605618   0.5686018  )
        56           N   tau(  56) = (  -0.3573594   0.7843655   0.5686018  )
        57           N   tau(  57) = (   0.2146195   0.0408636   0.5686018  )
        58           N   tau(  58) = (   0.1428537   0.1641136   0.5686018  )
        59           N   tau(  59) = (   0.0709529   0.2875058   0.5686018  )
        60           N   tau(  60) = (  -0.0010291   0.4129129   0.5686018  )
        61           N   tau(  61) = (  -0.0729014   0.5369062   0.5686018  )
        62           N   tau(  62) = (  -0.1432981   0.6607772   0.5686018  )
        63           N   tau(  63) = (  -0.2144271   0.7844069   0.5686018  )
        64           N   tau(  64) = (   0.3577924   0.0411005   0.5686018  )
        65           N   tau(  65) = (   0.2865854   0.1641978   0.5686018  )
        66           N   tau(  66) = (   0.2150959   0.2865082   0.5686018  )
        67           C1  tau(  67) = (   0.1451746   0.4129508   0.5686018  )
        68           N   tau(  68) = (   0.0683981   0.5385543   0.5686018  )
        69           N   tau(  69) = (  -0.0008244   0.6617473   0.5686018  )
        70           N   tau(  70) = (  -0.0715782   0.7849068   0.5686018  )
        71           N   tau(  71) = (   0.5005366   0.0415085   0.5686018  )
        72           N   tau(  72) = (   0.4291374   0.1651643   0.5686018  )
        73           N   tau(  73) = (   0.3574119   0.2891433   0.5686018  )
        74           N   tau(  74) = (   0.2852865   0.4133337   0.5686018  )
        75           C3  tau(  75) = (   0.2155622   0.5348657   0.5686018  )
        76           N   tau(  76) = (   0.1424932   0.6615008   0.5686018  )
        77           N   tau(  77) = (   0.0713782   0.7850374   0.5686018  )
        78           N   tau(  78) = (   0.6434648   0.0415289   0.5686018  )
        79           N   tau(  79) = (   0.5719958   0.1652342   0.5686018  )
        80           N   tau(  80) = (   0.5004657   0.2890999   0.5686018  )
        81           N   tau(  81) = (   0.4289012   0.4129666   0.5686018  )
        82           N   tau(  82) = (   0.3600254   0.5375333   0.5686018  )
        83           N   tau(  83) = (   0.2870899   0.6618661   0.5686018  )
        84           N   tau(  84) = (   0.2146071   0.7847812   0.5686018  )
        85           N   tau(  85) = (   0.7865560   0.0414754   0.5686018  )
        86           N   tau(  86) = (   0.7149641   0.1652592   0.5686018  )
        87           N   tau(  87) = (   0.6435016   0.2890859   0.5686018  )
        88           N   tau(  88) = (   0.5721330   0.4128399   0.5686018  )
        89           N   tau(  89) = (   0.5016940   0.5367768   0.5686018  )
        90           N   tau(  90) = (   0.4299011   0.6612942   0.5686018  )
        91           N   tau(  91) = (   0.3580307   0.7851525   0.5686018  )
        92           N   tau(  92) = (   0.9295819   0.0413496   0.5686018  )
        93           N   tau(  93) = (   0.8579600   0.1651508   0.5686018  )
        94           N   tau(  94) = (   0.7863681   0.2890447   0.5686018  )
        95           N   tau(  95) = (   0.7149217   0.4128343   0.5686018  )
        96           N   tau(  96) = (   0.6439029   0.5366585   0.5686018  )
        97           N   tau(  97) = (   0.5725216   0.6607683   0.5686018  )
        98           N   tau(  98) = (   0.5008542   0.7847216   0.5686018  )

     number of k points=     1
                       cart. coord. in units 2pi/alat
        k(    1) = (   0.0000000   0.0000000   0.0000000), wk =   1.0000000

     Dense  grid:   319402 G-vectors     FFT dimensions: ( 108, 108, 125)

     Occupations read from input 

      Spin-up

        1.0000   1.0000   1.0000   1.0000   1.0000   1.0000   1.0000   1.0000
        1.0000   1.0000   1.0000   1.0000   1.0000   1.0000   1.0000   1.0000
        1.0000   1.0000   1.0000   1.0000   1.0000   1.0000   1.0000   1.0000
        1.0000   1.0000   1.0000   1.0000   1.0000   1.0000   1.0000   1.0000
        1.0000   1.0000   1.0000   1.0000   1.0000   1.0000   1.0000   1.0000
        1.0000   1.0000   1.0000   1.0000   1.0000   1.0000   1.0000   1.0000
        1.0000   1.0000   1.0000   1.0000   1.0000   1.0000   1.0000   1.0000
        1.0000   1.0000   1.0000   1.0000   1.0000   1.0000   1.0000   1.0000
        1.0000   1.0000   1.0000   1.0000   1.0000   1.0000   1.0000   1.0000
        1.0000   1.0000   1.0000   1.0000   1.0000   1.0000   1.0000   1.0000
        1.0000   1.0000   1.0000   1.0000   1.0000   1.0000   1.0000   1.0000
        1.0000   1.0000   1.0000   1.0000   1.0000   1.0000   1.0000   1.0000
        1.0000   1.0000   1.0000   1.0000   1.0000   1.0000   1.0000   1.0000
        1.0000   1.0000   1.0000   1.0000   1.0000   1.0000   1.0000   1.0000
        1.0000   1.0000   1.0000   1.0000   1.0000   1.0000   1.0000   1.0000
        1.0000   1.0000   1.0000   1.0000   1.0000   1.0000   1.0000   1.0000
        1.0000   1.0000   1.0000   1.0000   1.0000   1.0000   1.0000   1.0000
        1.0000   1.0000   1.0000   1.0000   1.0000   1.0000   1.0000   1.0000
        1.0000   1.0000   1.0000   1.0000   1.0000   1.0000   1.0000   1.0000
        1.0000   1.0000   1.0000   1.0000   1.0000   1.0000   1.0000   1.0000
        1.0000   1.0000   1.0000   1.0000   1.0000   1.0000   1.0000   1.0000
        1.0000   1.0000   1.0000   1.0000   1.0000   1.0000   1.0000   1.0000
        1.0000   1.0000   1.0000   1.0000   1.0000   1.0000   1.0000   1.0000
        1.0000   1.0000   1.0000   1.0000   1.0000   1.0000   1.0000   1.0000
        1.0000   1.0000   0.0000   1.0000   1.0000   0.0000   0.0000   0.0000
        0.0000   0.0000   0.0000   0.0000   0.0000   0.0000   0.0000   0.0000
        0.0000   0.0000   0.0000   0.0000   0.0000   0.0000   0.0000   0.0000
        0.0000   0.0000   0.0000   0.0000   0.0000   0.0000   0.0000   0.0000
        0.0000   0.0000   0.0000   0.0000   0.0000   0.0000   0.0000   0.0000
        0.0000   0.0000   0.0000   0.0000   0.0000   0.0000   0.0000   0.0000
        0.0000   0.0000   0.0000   0.0000   0.0000

      Spin-down

        1.0000   1.0000   1.0000   1.0000   1.0000   1.0000   1.0000   1.0000
        1.0000   1.0000   1.0000   1.0000   1.0000   1.0000   1.0000   1.0000
        1.0000   1.0000   1.0000   1.0000   1.0000   1.0000   1.0000   1.0000
        1.0000   1.0000   1.0000   1.0000   1.0000   1.0000   1.0000   1.0000
        1.0000   1.0000   1.0000   1.0000   1.0000   1.0000   1.0000   1.0000
        1.0000   1.0000   1.0000   1.0000   1.0000   1.0000   1.0000   1.0000
        1.0000   1.0000   1.0000   1.0000   1.0000   1.0000   1.0000   1.0000
        1.0000   1.0000   1.0000   1.0000   1.0000   1.0000   1.0000   1.0000
        1.0000   1.0000   1.0000   1.0000   1.0000   1.0000   1.0000   1.0000
        1.0000   1.0000   1.0000   1.0000   1.0000   1.0000   1.0000   1.0000
        1.0000   1.0000   1.0000   1.0000   1.0000   1.0000   1.0000   1.0000
        1.0000   1.0000   1.0000   1.0000   1.0000   1.0000   1.0000   1.0000
        1.0000   1.0000   1.0000   1.0000   1.0000   1.0000   1.0000   1.0000
        1.0000   1.0000   1.0000   1.0000   1.0000   1.0000   1.0000   1.0000
        1.0000   1.0000   1.0000   1.0000   1.0000   1.0000   1.0000   1.0000
        1.0000   1.0000   1.0000   1.0000   1.0000   1.0000   1.0000   1.0000
        1.0000   1.0000   1.0000   1.0000   1.0000   1.0000   1.0000   1.0000
        1.0000   1.0000   1.0000   1.0000   1.0000   1.0000   1.0000   1.0000
        1.0000   1.0000   1.0000   1.0000   1.0000   1.0000   1.0000   1.0000
        1.0000   1.0000   1.0000   1.0000   1.0000   1.0000   1.0000   1.0000
        1.0000   1.0000   1.0000   1.0000   1.0000   1.0000   1.0000   1.0000
        1.0000   1.0000   1.0000   1.0000   1.0000   1.0000   1.0000   1.0000
        1.0000   1.0000   1.0000   1.0000   1.0000   1.0000   1.0000   1.0000
        1.0000   1.0000   1.0000   1.0000   1.0000   1.0000   1.0000   1.0000
        1.0000   1.0000   1.0000   0.0000   0.0000   0.0000   0.0000   0.0000
        0.0000   0.0000   0.0000   0.0000   0.0000   0.0000   0.0000   0.0000
        0.0000   0.0000   0.0000   0.0000   0.0000   0.0000   0.0000   0.0000
        0.0000   0.0000   0.0000   0.0000   0.0000   0.0000   0.0000   0.0000
        0.0000   0.0000   0.0000   0.0000   0.0000   0.0000   0.0000   0.0000
        0.0000   0.0000   0.0000   0.0000   0.0000   0.0000   0.0000   0.0000
        0.0000   0.0000   0.0000   0.0000   0.0000

     Estimated max dynamical RAM per process >     102.88 MB

     Estimated total dynamical RAM >      12.86 GB
     Generating pointlists ...
     new r_m :   0.0336 (alat units)  1.1164 (a.u.) for type    1
     new r_m :   0.0329 (alat units)  1.0943 (a.u.) for type    2
     new r_m :   0.0337 (alat units)  1.1190 (a.u.) for type    3
     new r_m :   0.0329 (alat units)  1.0943 (a.u.) for type    4
     new r_m :   0.0337 (alat units)  1.1190 (a.u.) for type    5

     Check: negative core charge=   -0.000147

     Initial potential from superposition of free atoms

     starting charge  390.98597, renormalised to  391.00000

     negative rho (up, down):  7.607E-01 1.198E-03
     Starting wfcs are  392 randomized atomic wfcs

     total cpu time spent up to now is        5.6 secs

     Self-consistent Calculation

     iteration #  1     ecut=    25.73 Ry     beta= 0.70
     CG style diagonalization
     ethr =  1.00E-02,  avg # of iterations =  3.1

     negative rho (up, down):  2.371E+00 8.652E-03

     total cpu time spent up to now is       15.0 secs

     total energy              =   -1931.87538217 Ry
     Harris-Foulkes estimate   =   -1942.43445461 Ry
     estimated scf accuracy    <      17.11257038 Ry

     total magnetization       =     1.00 Bohr mag/cell
     absolute magnetization    =     2.43 Bohr mag/cell

     iteration #  2     ecut=    25.73 Ry     beta= 0.70
     CG style diagonalization
     ethr =  4.38E-03,  avg # of iterations =  4.1

     negative rho (up, down):  2.672E+00 7.501E-03

     total cpu time spent up to now is       23.6 secs

     total energy              =   -1935.06216779 Ry
     Harris-Foulkes estimate   =   -1940.39321243 Ry
     estimated scf accuracy    <      10.30629503 Ry

     total magnetization       =     1.00 Bohr mag/cell
     absolute magnetization    =     2.95 Bohr mag/cell

     iteration #  3     ecut=    25.73 Ry     beta= 0.70
     CG style diagonalization
     ethr =  2.64E-03,  avg # of iterations =  3.8

     negative rho (up, down):  2.872E+00 7.427E-03

     total cpu time spent up to now is       31.3 secs

     total energy              =   -1936.85295674 Ry
     Harris-Foulkes estimate   =   -1938.00232418 Ry
     estimated scf accuracy    <       2.40179551 Ry

     total magnetization       =     1.00 Bohr mag/cell
     absolute magnetization    =     3.01 Bohr mag/cell

     iteration #  4     ecut=    25.73 Ry     beta= 0.70
     CG style diagonalization
     ethr =  6.14E-04,  avg # of iterations =  4.0

     negative rho (up, down):  3.003E+00 2.051E-02

     total cpu time spent up to now is       40.1 secs

     total energy              =   -1937.48558126 Ry
     Harris-Foulkes estimate   =   -1937.79548805 Ry
     estimated scf accuracy    <       0.98313462 Ry

     total magnetization       =     1.00 Bohr mag/cell
     absolute magnetization    =     2.86 Bohr mag/cell

     iteration #  5     ecut=    25.73 Ry     beta= 0.70
     CG style diagonalization
     c_bands:  3 eigenvalues not converged
     c_bands:  2 eigenvalues not converged
     ethr =  2.51E-04,  avg # of iterations =  3.6

     negative rho (up, down):  3.054E+00 1.784E-02

     total cpu time spent up to now is       47.7 secs

     total energy              =   -1937.55643272 Ry
     Harris-Foulkes estimate   =   -1937.65818862 Ry
     estimated scf accuracy    <       0.40904866 Ry

     total magnetization       =     1.00 Bohr mag/cell
     absolute magnetization    =     3.01 Bohr mag/cell

     iteration #  6     ecut=    25.73 Ry     beta= 0.70
     CG style diagonalization
     c_bands:  1 eigenvalues not converged
     c_bands:  3 eigenvalues not converged
     ethr =  1.05E-04,  avg # of iterations =  3.4

     negative rho (up, down):  3.050E+00 2.229E-02

     total cpu time spent up to now is       54.6 secs

     total energy              =   -1937.61617719 Ry
     Harris-Foulkes estimate   =   -1937.65164764 Ry
     estimated scf accuracy    <       0.17190777 Ry

     total magnetization       =     1.00 Bohr mag/cell
     absolute magnetization    =     2.58 Bohr mag/cell

     iteration #  7     ecut=    25.73 Ry     beta= 0.70
     CG style diagonalization
     c_bands:  2 eigenvalues not converged
     ethr =  4.40E-05,  avg # of iterations =  3.3

     negative rho (up, down):  3.036E+00 2.911E-02

     total cpu time spent up to now is       61.2 secs

     total energy              =   -1937.62240716 Ry
     Harris-Foulkes estimate   =   -1937.62959090 Ry
     estimated scf accuracy    <       0.04334221 Ry

     total magnetization       =     1.00 Bohr mag/cell
     absolute magnetization    =     2.70 Bohr mag/cell

     iteration #  8     ecut=    25.73 Ry     beta= 0.70
     CG style diagonalization
     c_bands:  1 eigenvalues not converged
     ethr =  1.11E-05,  avg # of iterations =  3.8

     negative rho (up, down):  3.029E+00 3.386E-02

     total cpu time spent up to now is       69.3 secs

     total energy              =   -1937.62257260 Ry
     Harris-Foulkes estimate   =   -1937.63259229 Ry
     estimated scf accuracy    <       0.05427026 Ry

     total magnetization       =     1.00 Bohr mag/cell
     absolute magnetization    =     2.71 Bohr mag/cell

     iteration #  9     ecut=    25.73 Ry     beta= 0.70
     CG style diagonalization
     ethr =  1.11E-05,  avg # of iterations =  3.1

     negative rho (up, down):  3.026E+00 3.617E-02

     total cpu time spent up to now is       75.3 secs

     total energy              =   -1937.62443854 Ry
     Harris-Foulkes estimate   =   -1937.62969602 Ry
     estimated scf accuracy    <       0.02762513 Ry

     total magnetization       =     1.00 Bohr mag/cell
     absolute magnetization    =     2.76 Bohr mag/cell

     iteration # 10     ecut=    25.73 Ry     beta= 0.70
     CG style diagonalization
     c_bands:  1 eigenvalues not converged
     ethr =  7.07E-06,  avg # of iterations =  3.2

     negative rho (up, down):  3.021E+00 3.754E-02

     total cpu time spent up to now is       81.8 secs

     total energy              =   -1937.62520818 Ry
     Harris-Foulkes estimate   =   -1937.62900508 Ry
     estimated scf accuracy    <       0.02287692 Ry

     total magnetization       =     1.00 Bohr mag/cell
     absolute magnetization    =     2.87 Bohr mag/cell

     iteration # 11     ecut=    25.73 Ry     beta= 0.70
     CG style diagonalization
     ethr =  5.85E-06,  avg # of iterations =  3.0

     negative rho (up, down):  3.021E+00 3.772E-02

     total cpu time spent up to now is       88.0 secs

     total energy              =   -1937.62669356 Ry
     Harris-Foulkes estimate   =   -1937.62821295 Ry
     estimated scf accuracy    <       0.01012843 Ry

     total magnetization       =     1.00 Bohr mag/cell
     absolute magnetization    =     2.79 Bohr mag/cell

     iteration # 12     ecut=    25.73 Ry     beta= 0.70
     CG style diagonalization
     c_bands:  1 eigenvalues not converged
     ethr =  2.59E-06,  avg # of iterations =  3.1

     negative rho (up, down):  2.996E+00 4.122E-02
 
     Magnetic moment per site:
     atom:    1    charge:    0.8558    magn:    0.0003    constr:    0.0000
     atom:    2    charge:    0.8495    magn:    0.0001    constr:    0.0000
     atom:    3    charge:    0.8509    magn:    0.0013    constr:    0.0000
     atom:    4    charge:    0.8515    magn:   -0.0008    constr:    0.0000
     atom:    5    charge:    0.8544    magn:   -0.0001    constr:    0.0000
     atom:    6    charge:    0.8546    magn:    0.0000    constr:    0.0000
     atom:    7    charge:    0.8549    magn:   -0.0004    constr:    0.0000
     atom:    8    charge:    0.8516    magn:    0.0001    constr:    0.0000
     atom:    9    charge:    0.8537    magn:    0.0002    constr:    0.0000
     atom:   10    charge:    0.8412    magn:    0.0043    constr:    0.0000
     atom:   11    charge:    0.8500    magn:    0.0003    constr:    0.0000
     atom:   12    charge:    0.8537    magn:    0.0009    constr:    0.0000
     atom:   13    charge:    0.8509    magn:   -0.0002    constr:    0.0000
     atom:   14    charge:    0.8551    magn:    0.0004    constr:    0.0000
     atom:   15    charge:    0.8539    magn:   -0.0003    constr:    0.0000
     atom:   16    charge:    0.8552    magn:    0.0008    constr:    0.0000
     atom:   17    charge:    0.8625    magn:    0.0034    constr:    0.0000
     atom:   18    charge:    0.8501    magn:    0.0080    constr:    0.0000
     atom:   19    charge:    0.8617    magn:    0.0012    constr:    0.0000
     atom:   20    charge:    0.8537    magn:    0.0007    constr:    0.0000
     atom:   21    charge:    0.8551    magn:    0.0004    constr:    0.0000
     atom:   22    charge:    0.8501    magn:   -0.0001    constr:    0.0000
     atom:   23    charge:    0.8479    magn:    0.0008    constr:    0.0000
     atom:   24    charge:    0.8428    magn:    0.0019    constr:    0.0000
     atom:   25    charge:    1.5887    magn:   -0.0202    constr:    0.0000
     atom:   26    charge:    0.8499    magn:    0.0105    constr:    0.0000
     atom:   27    charge:    0.8511    magn:    0.0023    constr:    0.0000
     atom:   28    charge:    0.8528    magn:    0.0003    constr:    0.0000
     atom:   29    charge:    0.8497    magn:   -0.0000    constr:    0.0000
     atom:   30    charge:    0.8505    magn:    0.0002    constr:    0.0000
     atom:   31    charge:    0.8491    magn:   -0.0005    constr:    0.0000
     atom:   32    charge:    0.8421    magn:   -0.0000    constr:    0.0000
     atom:   33    charge:    0.8625    magn:    0.0052    constr:    0.0000
     atom:   34    charge:    0.8419    magn:    0.0064    constr:    0.0000
     atom:   35    charge:    0.8512    magn:    0.0015    constr:    0.0000
     atom:   36    charge:    0.8489    magn:    0.0004    constr:    0.0000
     atom:   37    charge:    0.8508    magn:   -0.0002    constr:    0.0000
     atom:   38    charge:    0.8489    magn:   -0.0012    constr:    0.0000
     atom:   39    charge:    0.8478    magn:    0.0006    constr:    0.0000
     atom:   40    charge:    0.8550    magn:    0.0005    constr:    0.0000
     atom:   41    charge:    0.8538    magn:    0.0011    constr:    0.0000
     atom:   42    charge:    0.8506    magn:    0.0009    constr:    0.0000
     atom:   43    charge:    0.8482    magn:    0.0002    constr:    0.0000
     atom:   44    charge:    0.8482    magn:    0.0001    constr:    0.0000
     atom:   45    charge:    0.8490    magn:   -0.0005    constr:    0.0000
     atom:   46    charge:    0.8501    magn:   -0.0002    constr:    0.0000
     atom:   47    charge:    0.8530    magn:   -0.0011    constr:    0.0000
     atom:   48    charge:    0.8521    magn:    0.0006    constr:    0.0000
     atom:   49    charge:    0.8553    magn:   -0.0000    constr:    0.0000
     atom:   50    charge:    2.6966    magn:   -0.0168    constr:    0.0000
     atom:   51    charge:    2.7008    magn:   -0.0018    constr:    0.0000
     atom:   52    charge:    2.6969    magn:   -0.0128    constr:    0.0000
     atom:   53    charge:    2.7005    magn:   -0.0107    constr:    0.0000
     atom:   54    charge:    2.6985    magn:   -0.0069    constr:    0.0000
     atom:   55    charge:    2.6915    magn:   -0.0163    constr:    0.0000
     atom:   56    charge:    2.7075    magn:   -0.0040    constr:    0.0000
     atom:   57    charge:    2.6922    magn:   -0.0096    constr:    0.0000
     atom:   58    charge:    2.6991    magn:   -0.0048    constr:    0.0000
     atom:   59    charge:    2.6805    magn:   -0.0267    constr:    0.0000
     atom:   60    charge:    2.6950    magn:    0.0142    constr:    0.0000
     atom:   61    charge:    2.6807    magn:   -0.0256    constr:    0.0000
     atom:   62    charge:    2.7057    magn:   -0.0118    constr:    0.0000
     atom:   63    charge:    2.6995    magn:   -0.0119    constr:    0.0000
     atom:   64    charge:    2.7158    magn:   -0.0014    constr:    0.0000
     atom:   65    charge:    2.6825    magn:   -0.0223    constr:    0.0000
     atom:   66    charge:    2.6953    magn:    0.0082    constr:    0.0000
     atom:   67    charge:    1.7279    magn:    0.1098    constr:    0.0000
     atom:   68    charge:    2.6997    magn:   -0.0491    constr:    0.0000
     atom:   69    charge:    2.7084    magn:   -0.0017    constr:    0.0000
     atom:   70    charge:    2.6928    magn:   -0.0114    constr:    0.0000
     atom:   71    charge:    2.7042    magn:   -0.0020    constr:    0.0000
     atom:   72    charge:    2.6942    magn:   -0.0068    constr:    0.0000
     atom:   73    charge:    2.7019    magn:   -0.0043    constr:    0.0000
     atom:   74    charge:    2.6766    magn:   -0.0565    constr:    0.0000
     atom:   75    charge:    1.7239    magn:    0.0994    constr:    0.0000
     atom:   76    charge:    2.6934    magn:    0.0068    constr:    0.0000
     atom:   77    charge:    2.7031    magn:   -0.0103    constr:    0.0000
     atom:   78    charge:    2.7094    magn:   -0.0012    constr:    0.0000
     atom:   79    charge:    2.7018    magn:   -0.0009    constr:    0.0000
     atom:   80    charge:    2.7103    magn:   -0.0063    constr:    0.0000
     atom:   81    charge:    2.6919    magn:   -0.0111    constr:    0.0000
     atom:   82    charge:    2.7033    magn:    0.0154    constr:    0.0000
     atom:   83    charge:    2.6999    magn:   -0.0141    constr:    0.0000
     atom:   84    charge:    2.7073    magn:   -0.0040    constr:    0.0000
     atom:   85    charge:    2.7019    magn:   -0.0022    constr:    0.0000
     atom:   86    charge:    2.6993    magn:   -0.0036    constr:    0.0000
     atom:   87    charge:    2.7036    magn:   -0.0009    constr:    0.0000
     atom:   88    charge:    2.6980    magn:   -0.0031    constr:    0.0000
     atom:   89    charge:    2.7076    magn:   -0.0022    constr:    0.0000
     atom:   90    charge:    2.6983    magn:   -0.0062    constr:    0.0000
     atom:   91    charge:    2.7018    magn:   -0.0032    constr:    0.0000
     atom:   92    charge:    2.7100    magn:   -0.0082    constr:    0.0000
     atom:   93    charge:    2.7010    magn:   -0.0059    constr:    0.0000
     atom:   94    charge:    2.7053    magn:   -0.0018    constr:    0.0000
     atom:   95    charge:    2.6971    magn:   -0.0080    constr:    0.0000
     atom:   96    charge:    2.7161    magn:   -0.0019    constr:    0.0000
     atom:   97    charge:    2.6920    magn:   -0.0112    constr:    0.0000
     atom:   98    charge:    2.7126    magn:   -0.0018    constr:    0.0000

     total cpu time spent up to now is       94.1 secs

     End of self-consistent calculation

 ------ SPIN UP ------------


          k = 0.0000 0.0000 0.0000 ( 39989 PWs)   bands (ev):

   -22.6484 -22.3472 -22.0775 -22.0596 -22.0492 -22.0293 -21.9962 -21.6304
   -21.3803 -21.3582 -21.3566 -21.2556 -21.2436 -21.1226 -21.0340 -21.0284
   -20.9982 -20.8781 -20.8718 -20.3767 -20.1636 -20.1565 -20.1422 -20.1232
   -20.1212 -20.1131 -20.1067 -20.0957 -20.0757 -19.9256 -19.9158 -19.8035
   -19.7308 -19.7220 -19.7106 -19.5758 -19.5518 -19.3405 -19.3351 -19.3098
   -19.2937 -19.2283 -19.2229 -19.1419 -19.1313 -19.1191 -19.1087 -17.8864
   -16.0014 -13.9680 -13.3926 -13.3802 -13.3480 -13.3002 -13.2808 -13.2294
   -13.1557 -13.1472 -13.1175 -13.0946 -13.0652 -12.7965 -12.7029 -12.6888
   -12.6664 -12.6224 -12.6122 -12.1918 -12.0722 -12.0669 -12.0078 -12.0043
   -11.9864 -11.9838 -11.9737 -11.9501 -11.9250 -11.7908 -11.7209 -11.5312
   -11.3181 -11.3065 -11.2834 -11.2756 -11.1606 -10.7081 -10.6611 -10.6319
   -10.5617 -10.5238 -10.4508 -10.0554  -9.9653  -9.9581  -9.9101  -9.8953
    -9.8692  -9.8388  -9.6980  -9.5906  -9.5513  -9.5301  -9.5129  -9.5096
    -9.5056  -9.4865  -9.4847  -9.4606  -9.4580  -9.4506  -9.4336  -9.4279
    -9.3961  -9.3238  -9.3228  -9.3113  -9.3113  -9.2973  -9.2749  -9.2613
    -9.1390  -9.1068  -8.8180  -8.8119  -8.8029  -8.7892  -8.7560  -8.5627
    -8.4940  -8.3420  -8.3195  -8.3179  -8.2441  -8.2289  -8.2074  -8.1360
    -8.1174  -8.0495  -8.0360  -8.0262  -8.0183  -8.0106  -7.9799  -7.9482
    -7.9419  -7.8931  -7.8560  -7.8525  -7.8183  -7.7691  -7.7381  -7.7192
    -7.6258  -7.5876  -7.5702  -7.4932  -7.2861  -7.2015  -6.8065  -6.8062
    -6.7962  -6.7514  -6.7395  -6.5851  -6.5679  -6.5595  -6.5327  -6.5313
    -6.5235  -6.5217  -6.5134  -6.4981  -6.4768  -6.4143  -6.3680  -6.3163
    -6.0337  -5.9256  -5.9175  -5.9087  -5.8936  -5.8876  -5.8822  -5.7844
    -5.2896  -5.2757  -5.2448  -5.2360  -5.1736  -5.1214  -5.0062  -4.9811
    -4.9606  -4.9539  -4.9451  -4.2823  -0.8530  -0.7571  -0.3415  -0.2296
    -0.2137  -0.1961  -0.1864  -0.1848  -0.1779  -0.0144   0.1469   0.1733
     0.2040   0.2185   0.2288   0.2677   0.2749   0.2891   0.2950   0.2956
     0.3021   0.3188   0.3647   0.3947   0.4001   0.4319   0.4553   0.6040
     0.6267   0.6300   0.6334   0.6370   0.6394   0.6423   0.6721   0.6795
     0.7295   0.7546   0.7899   0.9675   1.0707   1.0709   1.0842   1.0854
     1.0970   1.0994   1.3081   1.5018   1.5211

 ------ SPIN DOWN ----------


          k = 0.0000 0.0000 0.0000 ( 39989 PWs)   bands (ev):

   -22.6978 -22.3652 -22.0907 -22.0682 -22.0590 -22.0387 -22.0088 -21.6518
   -21.3876 -21.3772 -21.3631 -21.2679 -21.2489 -21.1361 -21.0444 -21.0315
   -21.0214 -20.8860 -20.8766 -20.3914 -20.1778 -20.1696 -20.1472 -20.1365
   -20.1326 -20.1261 -20.1164 -20.1021 -20.0942 -19.9376 -19.9292 -19.8160
   -19.7413 -19.7323 -19.7237 -19.5797 -19.5671 -19.3550 -19.3476 -19.3248
   -19.3095 -19.2430 -19.2324 -19.1515 -19.1462 -19.1346 -19.1134 -17.7760
   -15.7448 -13.9214 -13.3894 -13.3806 -13.3465 -13.2969 -13.2799 -13.2299
   -13.1530 -13.1475 -13.1179 -13.0907 -13.0607 -12.7958 -12.7033 -12.6884
   -12.6625 -12.6150 -12.6083 -12.1866 -12.0710 -12.0682 -12.0096 -12.0063
   -11.9901 -11.9860 -11.9751 -11.9491 -11.9223 -11.7688 -11.7046 -11.5286
   -11.3185 -11.3048 -11.2797 -11.2763 -11.1485 -10.7110 -10.6610 -10.6346
   -10.5582 -10.5185 -10.4424 -10.0563  -9.9602  -9.9572  -9.9099  -9.8958
    -9.8714  -9.8372  -9.7015  -9.5946  -9.5510  -9.5319  -9.5166  -9.5107
    -9.5089  -9.5071  -9.4852  -9.4618  -9.4586  -9.4526  -9.4346  -9.4285
    -9.3919  -9.3371  -9.3175  -9.3119  -9.3061  -9.3024  -9.2866  -9.2462
    -9.1185  -9.0961  -8.8191  -8.8068  -8.8040  -8.7843  -8.7559  -8.5518
    -8.5349  -8.3495  -8.3468  -8.3261  -8.2354  -8.2196  -8.2079  -8.1405
    -8.1197  -8.0456  -8.0369  -8.0287  -8.0215  -8.0131  -7.9815  -7.9736
    -7.9491  -7.8830  -7.8708  -7.8538  -7.8529  -7.7490  -7.7115  -7.7023
    -7.6289  -7.5906  -7.5681  -7.4789  -7.2710  -7.1752  -6.8425  -6.8074
    -6.7985  -6.7534  -6.7389  -6.6077  -6.5974  -6.5653  -6.5580  -6.5521
    -6.5490  -6.5422  -6.5358  -6.5159  -6.4560  -6.3797  -6.3370  -6.3060
    -6.0584  -5.9495  -5.9421  -5.9226  -5.8612  -5.8612  -5.8450  -5.7617
    -5.3201  -5.3100  -5.2772  -5.2709  -5.1815  -5.1403  -5.0305  -5.0159
    -5.0010  -4.9657  -4.9342  -3.7338  -0.6631  -0.6249  -0.1483  -0.0348
    -0.0200  -0.0102  -0.0019   0.0053   0.0100   0.0445   0.1669   0.1932
     0.2330   0.2460   0.2696   0.3261   0.3917   0.4049   0.4263   0.4393
     0.4647   0.4683   0.4785   0.4821   0.4864   0.4912   0.4932   0.6282
     0.6853   0.6893   0.6919   0.6950   0.6976   0.7034   0.7139   0.7174
     0.7408   0.7658   0.8223   1.0894   1.2594   1.2604   1.2723   1.2729
     1.2851   1.2914   1.4104   1.7111   1.7019

     highest occupied, lowest unoccupied level (ev):    -4.9342   -4.9451

!    total energy              =   -1937.62197119 Ry
     Harris-Foulkes estimate   =   -1937.62782114 Ry
     estimated scf accuracy    <       0.00759438 Ry

     total magnetization       =     1.00 Bohr mag/cell
     absolute magnetization    =     2.84 Bohr mag/cell

     convergence has been achieved in  12 iterations

     Using ACE for calculation of exact exchange

     EXX grid:   319402 G-vectors     FFT dimensions: ( 108, 108, 125)

     negative rho (up, down):  2.996E+00 4.122E-02

     EXX: now go back to refine exchange calculation

     total cpu time spent up to now is     2657.4 secs

     Self-consistent Calculation

     iteration #  1     ecut=    25.73 Ry     beta= 0.70
     CG style diagonalization
     c_bands:  1 eigenvalues not converged
     ethr =  2.59E-06,  avg # of iterations = 25.3

     negative rho (up, down):  3.059E+00 4.476E-02

     total cpu time spent up to now is     2726.0 secs

     total energy              =   -1722.34757448 Ry
     Harris-Foulkes estimate   =   -1722.49634899 Ry
     estimated scf accuracy    <       0.19300859 Ry

     total magnetization       =     1.00 Bohr mag/cell
     absolute magnetization    =     2.99 Bohr mag/cell

     iteration #  2     ecut=    25.73 Ry     beta= 0.70
     CG style diagonalization
     ethr =  4.94E-05,  avg # of iterations =  4.9

     negative rho (up, down):  3.052E+00 4.424E-02

     total cpu time spent up to now is     2737.9 secs

     total energy              =   -1712.98098479 Ry
     Harris-Foulkes estimate   =   -1713.25554888 Ry
     estimated scf accuracy    <       0.76423440 Ry

     total magnetization       =     1.00 Bohr mag/cell
     absolute magnetization    =     3.32 Bohr mag/cell

     iteration #  3     ecut=    25.73 Ry     beta= 0.70
     CG style diagonalization
     ethr =  4.94E-05,  avg # of iterations =  3.9

     negative rho (up, down):  3.049E+00 4.454E-02

     total cpu time spent up to now is     2747.0 secs

     total energy              =   -1713.05647213 Ry
     Harris-Foulkes estimate   =   -1713.08440101 Ry
     estimated scf accuracy    <       0.12592000 Ry

     total magnetization       =     1.00 Bohr mag/cell
     absolute magnetization    =     3.07 Bohr mag/cell

     iteration #  4     ecut=    25.73 Ry     beta= 0.70
     CG style diagonalization
     ethr =  3.22E-05,  avg # of iterations =  3.0

     negative rho (up, down):  3.045E+00 4.482E-02

     total cpu time spent up to now is     2753.6 secs

     total energy              =   -1713.03183218 Ry
     Harris-Foulkes estimate   =   -1713.06268917 Ry
     estimated scf accuracy    <       0.07524351 Ry

     total magnetization       =     1.00 Bohr mag/cell
     absolute magnetization    =     3.10 Bohr mag/cell

     iteration #  5     ecut=    25.73 Ry     beta= 0.70
     CG style diagonalization
     ethr =  1.92E-05,  avg # of iterations =  3.3

     negative rho (up, down):  3.042E+00 4.481E-02

     total cpu time spent up to now is     2761.0 secs

     total energy              =   -1713.03449650 Ry
     Harris-Foulkes estimate   =   -1713.04320232 Ry
     estimated scf accuracy    <       0.01782239 Ry

     total magnetization       =     1.00 Bohr mag/cell
     absolute magnetization    =     2.88 Bohr mag/cell

     iteration #  6     ecut=    25.73 Ry     beta= 0.70
     CG style diagonalization
     ethr =  4.56E-06,  avg # of iterations =  4.0

     negative rho (up, down):  3.045E+00 4.441E-02
 
     Magnetic moment per site:
     atom:    1    charge:    0.8279    magn:    0.0011    constr:    0.0000
     atom:    2    charge:    0.8218    magn:    0.0010    constr:    0.0000
     atom:    3    charge:    0.8224    magn:    0.0014    constr:    0.0000
     atom:    4    charge:    0.8243    magn:    0.0002    constr:    0.0000
     atom:    5    charge:    0.8271    magn:    0.0004    constr:    0.0000
     atom:    6    charge:    0.8272    magn:    0.0010    constr:    0.0000
     atom:    7    charge:    0.8269    magn:    0.0001    constr:    0.0000
     atom:    8    charge:    0.8239    magn:    0.0013    constr:    0.0000
     atom:    9    charge:    0.8252    magn:    0.0011    constr:    0.0000
     atom:   10    charge:    0.8130    magn:    0.0044    constr:    0.0000
     atom:   11    charge:    0.8228    magn:    0.0005    constr:    0.0000
     atom:   12    charge:    0.8255    magn:    0.0019    constr:    0.0000
     atom:   13    charge:    0.8230    magn:    0.0010    constr:    0.0000
     atom:   14    charge:    0.8268    magn:    0.0009    constr:    0.0000
     atom:   15    charge:    0.8258    magn:    0.0010    constr:    0.0000
     atom:   16    charge:    0.8277    magn:    0.0013    constr:    0.0000
     atom:   17    charge:    0.8358    magn:    0.0043    constr:    0.0000
     atom:   18    charge:    0.8226    magn:    0.0065    constr:    0.0000
     atom:   19    charge:    0.8336    magn:    0.0027    constr:    0.0000
     atom:   20    charge:    0.8254    magn:    0.0009    constr:    0.0000
     atom:   21    charge:    0.8270    magn:    0.0011    constr:    0.0000
     atom:   22    charge:    0.8215    magn:    0.0003    constr:    0.0000
     atom:   23    charge:    0.8199    magn:    0.0015    constr:    0.0000
     atom:   24    charge:    0.8136    magn:    0.0024    constr:    0.0000
     atom:   25    charge:    1.5573    magn:   -0.0313    constr:    0.0000
     atom:   26    charge:    0.8253    magn:    0.0083    constr:    0.0000
     atom:   27    charge:    0.8222    magn:    0.0014    constr:    0.0000
     atom:   28    charge:    0.8241    magn:    0.0009    constr:    0.0000
     atom:   29    charge:    0.8215    magn:    0.0001    constr:    0.0000
     atom:   30    charge:    0.8219    magn:    0.0007    constr:    0.0000
     atom:   31    charge:    0.8207    magn:    0.0000    constr:    0.0000
     atom:   32    charge:    0.8143    magn:   -0.0005    constr:    0.0000
     atom:   33    charge:    0.8387    magn:    0.0023    constr:    0.0000
     atom:   34    charge:    0.8135    magn:    0.0042    constr:    0.0000
     atom:   35    charge:    0.8224    magn:    0.0012    constr:    0.0000
     atom:   36    charge:    0.8206    magn:    0.0006    constr:    0.0000
     atom:   37    charge:    0.8222    magn:    0.0001    constr:    0.0000
     atom:   38    charge:    0.8218    magn:   -0.0010    constr:    0.0000
     atom:   39    charge:    0.8197    magn:    0.0005    constr:    0.0000
     atom:   40    charge:    0.8272    magn:    0.0005    constr:    0.0000
     atom:   41    charge:    0.8257    magn:    0.0006    constr:    0.0000
     atom:   42    charge:    0.8222    magn:    0.0008    constr:    0.0000
     atom:   43    charge:    0.8194    magn:    0.0005    constr:    0.0000
     atom:   44    charge:    0.8205    magn:    0.0006    constr:    0.0000
     atom:   45    charge:    0.8216    magn:   -0.0002    constr:    0.0000
     atom:   46    charge:    0.8218    magn:    0.0004    constr:    0.0000
     atom:   47    charge:    0.8257    magn:   -0.0006    constr:    0.0000
     atom:   48    charge:    0.8238    magn:    0.0009    constr:    0.0000
     atom:   49    charge:    0.8276    magn:    0.0003    constr:    0.0000
     atom:   50    charge:    2.6888    magn:   -0.0138    constr:    0.0000
     atom:   51    charge:    2.6820    magn:   -0.0021    constr:    0.0000
     atom:   52    charge:    2.6821    magn:   -0.0049    constr:    0.0000
     atom:   53    charge:    2.6824    magn:   -0.0127    constr:    0.0000
     atom:   54    charge:    2.6853    magn:   -0.0042    constr:    0.0000
     atom:   55    charge:    2.6849    magn:   -0.0164    constr:    0.0000
     atom:   56    charge:    2.6727    magn:   -0.0012    constr:    0.0000
     atom:   57    charge:    2.6825    magn:   -0.0127    constr:    0.0000
     atom:   58    charge:    2.6742    magn:    0.0009    constr:    0.0000
     atom:   59    charge:    2.6700    magn:   -0.0130    constr:    0.0000
     atom:   60    charge:    2.6749    magn:    0.0054    constr:    0.0000
     atom:   61    charge:    2.6789    magn:   -0.0180    constr:    0.0000
     atom:   62    charge:    2.6792    magn:   -0.0111    constr:    0.0000
     atom:   63    charge:    2.6896    magn:   -0.0109    constr:    0.0000
     atom:   64    charge:    2.6890    magn:   -0.0004    constr:    0.0000
     atom:   65    charge:    2.6787    magn:   -0.0243    constr:    0.0000
     atom:   66    charge:    2.6810    magn:   -0.0086    constr:    0.0000
     atom:   67    charge:    1.6813    magn:    0.1381    constr:    0.0000
     atom:   68    charge:    2.6827    magn:   -0.0509    constr:    0.0000
     atom:   69    charge:    2.6810    magn:   -0.0046    constr:    0.0000
     atom:   70    charge:    2.6852    magn:   -0.0093    constr:    0.0000
     atom:   71    charge:    2.6837    magn:   -0.0016    constr:    0.0000
     atom:   72    charge:    2.6815    magn:   -0.0088    constr:    0.0000
     atom:   73    charge:    2.6753    magn:   -0.0007    constr:    0.0000
     atom:   74    charge:    2.6499    magn:   -0.0535    constr:    0.0000
     atom:   75    charge:    1.7001    magn:    0.0510    constr:    0.0000
     atom:   76    charge:    2.6728    magn:    0.0101    constr:    0.0000
     atom:   77    charge:    2.6806    magn:   -0.0087    constr:    0.0000
     atom:   78    charge:    2.6881    magn:   -0.0007    constr:    0.0000
     atom:   79    charge:    2.6816    magn:   -0.0010    constr:    0.0000
     atom:   80    charge:    2.6873    magn:   -0.0053    constr:    0.0000
     atom:   81    charge:    2.6755    magn:   -0.0187    constr:    0.0000
     atom:   82    charge:    2.6814    magn:    0.0097    constr:    0.0000
     atom:   83    charge:    2.6737    magn:   -0.0204    constr:    0.0000
     atom:   84    charge:    2.6828    magn:   -0.0126    constr:    0.0000
     atom:   85    charge:    2.6794    magn:   -0.0035    constr:    0.0000
     atom:   86    charge:    2.6775    magn:   -0.0033    constr:    0.0000
     atom:   87    charge:    2.6816    magn:   -0.0005    constr:    0.0000
     atom:   88    charge:    2.6819    magn:   -0.0045    constr:    0.0000
     atom:   89    charge:    2.6793    magn:   -0.0006    constr:    0.0000
     atom:   90    charge:    2.6778    magn:   -0.0148    constr:    0.0000
     atom:   91    charge:    2.6819    magn:   -0.0030    constr:    0.0000
     atom:   92    charge:    2.6871    magn:   -0.0074    constr:    0.0000
     atom:   93    charge:    2.6794    magn:   -0.0041    constr:    0.0000
     atom:   94    charge:    2.6878    magn:   -0.0008    constr:    0.0000
     atom:   95    charge:    2.6829    magn:   -0.0078    constr:    0.0000
     atom:   96    charge:    2.6896    magn:   -0.0004    constr:    0.0000
     atom:   97    charge:    2.6842    magn:   -0.0134    constr:    0.0000
     atom:   98    charge:    2.6898    magn:   -0.0005    constr:    0.0000

     total cpu time spent up to now is     2771.0 secs

     End of self-consistent calculation

 ------ SPIN UP ------------


          k = 0.0000 0.0000 0.0000 ( 39989 PWs)   bands (ev):

   -26.1297 -25.6818 -25.4416 -25.3823 -25.3619 -25.3042 -25.2886 -24.9275
   -24.6519 -24.6145 -24.5773 -24.4973 -24.4556 -24.2974 -24.2510 -24.2172
   -24.1944 -24.1019 -24.0655 -23.5536 -23.3258 -23.2888 -23.2708 -23.2229
   -23.1921 -23.1790 -23.1689 -23.1576 -23.1513 -22.9907 -22.9705 -22.8780
   -22.7569 -22.7317 -22.7133 -22.6351 -22.6106 -22.3430 -22.3189 -22.3066
   -22.2898 -22.1798 -22.1770 -22.1110 -22.0555 -22.0384 -22.0338 -21.1099
   -19.1297 -16.5624 -15.8130 -15.7500 -15.7270 -15.6853 -15.6380 -15.5311
   -15.5174 -15.5048 -15.4322 -15.4249 -15.3954 -15.1115 -15.0482 -14.9889
   -14.9638 -14.9143 -14.8879 -14.4097 -14.3236 -14.2825 -14.2514 -14.2038
   -14.1809 -14.1681 -14.1510 -14.1494 -14.1355 -14.0298 -13.9854 -13.7403
   -13.4281 -13.4103 -13.4017 -13.3865 -13.3318 -12.7851 -12.7224 -12.6870
   -12.6222 -12.5815 -12.5295 -12.0991 -12.0067 -11.9719 -11.9180 -11.8905
   -11.8887 -11.8017 -11.6357 -11.5550 -11.5012 -11.4773 -11.4592 -11.4505
   -11.4462 -11.4367 -11.3963 -11.3867 -11.3712 -11.3624 -11.3518 -11.3403
   -11.3343 -11.3006 -11.2872 -11.2643 -11.2363 -11.2048 -11.1520 -11.1295
   -11.1268 -11.0189 -10.7342 -10.7071 -10.6294 -10.6277 -10.6117 -10.4664
   -10.2846 -10.1361 -10.0944 -10.0638 -10.0399 -10.0189  -9.9887  -9.9554
    -9.9074  -9.8650  -9.8024  -9.7809  -9.7776  -9.7571  -9.7340  -9.7286
    -9.7212  -9.6241  -9.5811  -9.5399  -9.5353  -9.5113  -9.4795  -9.4454
    -9.3477  -9.3077  -9.2801  -9.2687  -9.0728  -8.9450  -8.4873  -8.4334
    -8.3934  -8.3668  -8.3546  -8.1909  -8.1362  -8.0926  -8.0674  -8.0553
    -8.0233  -8.0039  -7.9927  -7.9720  -7.9439  -7.9342  -7.8699  -7.7736
    -7.5856  -7.5293  -7.4800  -7.3219  -7.3101  -7.3049  -7.2816  -7.1948
    -6.6265  -6.5728  -6.5628  -6.4974  -6.4138  -6.3758  -6.2270  -6.2066
    -6.1629  -6.1589  -5.8479  -5.5428  -0.6149  -0.1932  -0.0473   0.1409
     0.1688   0.1799   0.2230   0.2357   0.2521   0.2984   0.6017   0.6115
     0.6244   0.6484   0.6569   0.6685   0.9522   0.9607   0.9649   0.9765
     0.9825   0.9836   0.9879   1.0418   1.0961   1.1119   1.1329   1.3010
     1.3227   1.3603   1.4185   1.4217   1.4463   1.4593   1.5412   1.5453
     1.5513   1.5514   1.5568   1.5613   1.5652   1.5947   1.6011   1.6955
     1.7255   1.7271   1.7654   1.9234   1.9251

 ------ SPIN DOWN ----------


          k = 0.0000 0.0000 0.0000 ( 39989 PWs)   bands (ev):

   -26.2122 -25.7118 -25.4568 -25.4150 -25.3752 -25.3211 -25.3064 -24.9656
   -24.6694 -24.6319 -24.6018 -24.5176 -24.4758 -24.3223 -24.2631 -24.2375
   -24.2173 -24.1089 -24.0815 -23.5850 -23.3486 -23.3169 -23.2841 -23.2522
   -23.2180 -23.2018 -23.1876 -23.1823 -23.1746 -23.0166 -22.9894 -22.9048
   -22.7824 -22.7532 -22.7295 -22.6489 -22.6265 -22.3804 -22.3539 -22.3233
   -22.3101 -22.2051 -22.1988 -22.1468 -22.0734 -22.0560 -22.0459 -21.0069
   -18.7301 -16.5078 -15.8046 -15.7514 -15.7281 -15.6752 -15.6345 -15.5342
   -15.5192 -15.5061 -15.4319 -15.4234 -15.3921 -15.1157 -15.0508 -14.9868
   -14.9585 -14.9144 -14.8832 -14.4078 -14.3276 -14.2854 -14.2546 -14.2070
   -14.1846 -14.1742 -14.1567 -14.1513 -14.1368 -14.0054 -13.9675 -13.7418
   -13.4266 -13.4104 -13.4025 -13.3893 -13.3207 -12.7938 -12.7268 -12.6917
   -12.6207 -12.5775 -12.5240 -12.1003 -12.0074 -11.9709 -11.9267 -11.8947
   -11.8912 -11.8015 -11.6413 -11.5619 -11.5137 -11.5056 -11.4788 -11.4658
   -11.4556 -11.4409 -11.4005 -11.3936 -11.3748 -11.3684 -11.3502 -11.3437
   -11.3356 -11.3026 -11.2955 -11.2619 -11.2526 -11.2315 -11.1783 -11.1606
   -11.1035 -11.0068 -10.7320 -10.7120 -10.6331 -10.6316 -10.6146 -10.4541
   -10.4015 -10.1783 -10.1370 -10.1153 -10.0440 -10.0280  -9.9915  -9.9632
    -9.9136  -9.8618  -9.8026  -9.7873  -9.7761  -9.7600  -9.7387  -9.7284
    -9.7244  -9.7038  -9.6084  -9.5930  -9.5641  -9.5214  -9.4600  -9.4197
    -9.3531  -9.3136  -9.2775  -9.2654  -9.0516  -8.9128  -8.4928  -8.4816
    -8.4389  -8.3982  -8.3728  -8.2040  -8.1694  -8.1665  -8.1192  -8.1101
    -8.0782  -8.0673  -8.0476  -8.0451  -8.0254  -8.0237  -7.8528  -7.7980
    -7.5777  -7.5498  -7.5026  -7.4135  -7.3705  -7.3513  -7.2930  -7.1717
    -6.7316  -6.6972  -6.6560  -6.6385  -6.5038  -6.4797  -6.3607  -6.3247
    -6.3003  -6.2709  -6.2052  -3.5840  -0.2111  -0.0288   0.2238   0.3824
     0.4219   0.4275   0.4385   0.4581   0.4706   0.4773   0.8280   0.8358
     0.8506   0.8553   0.8635   0.8687   1.0332   1.0346   1.0430   1.0488
     1.0571   1.0644   1.0681   1.1061   1.1234   1.1439   1.1923   1.3061
     1.3559   1.4090   1.4290   1.4537   1.4755   1.4776   1.5681   1.6351
     1.6431   1.7116   1.7292   1.7291   1.7347   1.7369   1.7383   1.7471
     1.7524   1.8063   1.8321   2.0821   2.1223

     highest occupied, lowest unoccupied level (ev):    -6.1589   -5.8479

!    total energy              =   -1713.03467120 Ry
     Harris-Foulkes estimate   =   -1713.04084446 Ry
     estimated scf accuracy    <       0.00758159 Ry

     total magnetization       =     1.00 Bohr mag/cell
     absolute magnetization    =     2.78 Bohr mag/cell

     convergence has been achieved in   6 iterations

     Using ACE for calculation of exact exchange

     total energy              =   -1713.09727669 Ry
     Harris-Foulkes estimate   =   -1713.10344996 Ry
     est. exchange err (dexx)  =       0.06260549 Ry
     - averaged Fock potential =     193.20567564 Ry
     + Fock energy (ACE)       =     -96.73912282 Ry

     EXX: now go back to refine exchange calculation

     total cpu time spent up to now is     5415.0 secs

     Self-consistent Calculation

     iteration #  1     ecut=    25.73 Ry     beta= 0.70
     CG style diagonalization
     ethr =  4.56E-06,  avg # of iterations = 18.7

     negative rho (up, down):  3.049E+00 4.491E-02

     total cpu time spent up to now is     5465.4 secs

     total energy              =   -1713.01946910 Ry
     Harris-Foulkes estimate   =   -1713.06561138 Ry
     estimated scf accuracy    <       0.05634037 Ry

     total magnetization       =     1.00 Bohr mag/cell
     absolute magnetization    =     3.16 Bohr mag/cell

     iteration #  2     ecut=    25.73 Ry     beta= 0.70
     CG style diagonalization
     c_bands:  1 eigenvalues not converged
     c_bands:  2 eigenvalues not converged
     ethr =  1.44E-05,  avg # of iterations =  4.3

     negative rho (up, down):  3.050E+00 4.492E-02

     total cpu time spent up to now is     5476.0 secs

     total energy              =   -1713.02812935 Ry
     Harris-Foulkes estimate   =   -1713.12303970 Ry
     estimated scf accuracy    <       0.26351891 Ry

     total magnetization       =     1.00 Bohr mag/cell
     absolute magnetization    =     2.73 Bohr mag/cell

     iteration #  3     ecut=    25.73 Ry     beta= 0.70
     CG style diagonalization
     ethr =  1.44E-05,  avg # of iterations =  3.9

     negative rho (up, down):  3.050E+00 4.506E-02

     total cpu time spent up to now is     5485.4 secs

     total energy              =   -1713.05291371 Ry
     Harris-Foulkes estimate   =   -1713.05892265 Ry
     estimated scf accuracy    <       0.01712700 Ry

     total magnetization       =     1.00 Bohr mag/cell
     absolute magnetization    =     2.95 Bohr mag/cell

     iteration #  4     ecut=    25.73 Ry     beta= 0.70
     CG style diagonalization
     ethr =  4.38E-06,  avg # of iterations =  3.3

     negative rho (up, down):  3.050E+00 4.543E-02
 
     Magnetic moment per site:
     atom:    1    charge:    0.8255    magn:    0.0010    constr:    0.0000
     atom:    2    charge:    0.8196    magn:    0.0001    constr:    0.0000
     atom:    3    charge:    0.8202    magn:    0.0015    constr:    0.0000
     atom:    4    charge:    0.8214    magn:    0.0002    constr:    0.0000
     atom:    5    charge:    0.8243    magn:    0.0007    constr:    0.0000
     atom:    6    charge:    0.8244    magn:    0.0011    constr:    0.0000
     atom:    7    charge:    0.8244    magn:    0.0002    constr:    0.0000
     atom:    8    charge:    0.8213    magn:    0.0010    constr:    0.0000
     atom:    9    charge:    0.8234    magn:    0.0006    constr:    0.0000
     atom:   10    charge:    0.8106    magn:    0.0033    constr:    0.0000
     atom:   11    charge:    0.8203    magn:    0.0016    constr:    0.0000
     atom:   12    charge:    0.8232    magn:    0.0018    constr:    0.0000
     atom:   13    charge:    0.8201    magn:    0.0012    constr:    0.0000
     atom:   14    charge:    0.8242    magn:    0.0012    constr:    0.0000
     atom:   15    charge:    0.8231    magn:    0.0011    constr:    0.0000
     atom:   16    charge:    0.8250    magn:    0.0018    constr:    0.0000
     atom:   17    charge:    0.8348    magn:    0.0023    constr:    0.0000
     atom:   18    charge:    0.8219    magn:    0.0083    constr:    0.0000
     atom:   19    charge:    0.8314    magn:    0.0027    constr:    0.0000
     atom:   20    charge:    0.8230    magn:    0.0013    constr:    0.0000
     atom:   21    charge:    0.8244    magn:    0.0012    constr:    0.0000
     atom:   22    charge:    0.8192    magn:    0.0005    constr:    0.0000
     atom:   23    charge:    0.8174    magn:    0.0016    constr:    0.0000
     atom:   24    charge:    0.8114    magn:    0.0014    constr:    0.0000
     atom:   25    charge:    1.5524    magn:   -0.0353    constr:    0.0000
     atom:   26    charge:    0.8213    magn:    0.0104    constr:    0.0000
     atom:   27    charge:    0.8207    magn:    0.0013    constr:    0.0000
     atom:   28    charge:    0.8221    magn:    0.0010    constr:    0.0000
     atom:   29    charge:    0.8192    magn:    0.0002    constr:    0.0000
     atom:   30    charge:    0.8196    magn:    0.0006    constr:    0.0000
     atom:   31    charge:    0.8184    magn:   -0.0000    constr:    0.0000
     atom:   32    charge:    0.8117    magn:    0.0012    constr:    0.0000
     atom:   33    charge:    0.8351    magn:    0.0051    constr:    0.0000
     atom:   34    charge:    0.8115    magn:    0.0038    constr:    0.0000
     atom:   35    charge:    0.8205    magn:    0.0014    constr:    0.0000
     atom:   36    charge:    0.8184    magn:    0.0003    constr:    0.0000
     atom:   37    charge:    0.8199    magn:    0.0001    constr:    0.0000
     atom:   38    charge:    0.8191    magn:   -0.0006    constr:    0.0000
     atom:   39    charge:    0.8173    magn:    0.0010    constr:    0.0000
     atom:   40    charge:    0.8252    magn:    0.0003    constr:    0.0000
     atom:   41    charge:    0.8234    magn:    0.0010    constr:    0.0000
     atom:   42    charge:    0.8199    magn:    0.0010    constr:    0.0000
     atom:   43    charge:    0.8173    magn:    0.0006    constr:    0.0000
     atom:   44    charge:    0.8180    magn:   -0.0000    constr:    0.0000
     atom:   45    charge:    0.8190    magn:    0.0000    constr:    0.0000
     atom:   46    charge:    0.8193    magn:    0.0003    constr:    0.0000
     atom:   47    charge:    0.8230    magn:   -0.0006    constr:    0.0000
     atom:   48    charge:    0.8213    magn:    0.0013    constr:    0.0000
     atom:   49    charge:    0.8254    magn:    0.0000    constr:    0.0000
     atom:   50    charge:    2.6832    magn:   -0.0195    constr:    0.0000
     atom:   51    charge:    2.6772    magn:   -0.0017    constr:    0.0000
     atom:   52    charge:    2.6773    magn:   -0.0165    constr:    0.0000
     atom:   53    charge:    2.6768    magn:   -0.0096    constr:    0.0000
     atom:   54    charge:    2.6800    magn:   -0.0067    constr:    0.0000
     atom:   55    charge:    2.6841    magn:   -0.0172    constr:    0.0000
     atom:   56    charge:    2.6734    magn:   -0.0010    constr:    0.0000
     atom:   57    charge:    2.6783    magn:   -0.0107    constr:    0.0000
     atom:   58    charge:    2.6705    magn:   -0.0088    constr:    0.0000
     atom:   59    charge:    2.6594    magn:   -0.0312    constr:    0.0000
     atom:   60    charge:    2.6690    magn:    0.0096    constr:    0.0000
     atom:   61    charge:    2.6719    magn:   -0.0330    constr:    0.0000
     atom:   62    charge:    2.6749    magn:   -0.0116    constr:    0.0000
     atom:   63    charge:    2.6846    magn:   -0.0108    constr:    0.0000
     atom:   64    charge:    2.6867    magn:   -0.0003    constr:    0.0000
     atom:   65    charge:    2.6669    magn:   -0.0245    constr:    0.0000
     atom:   66    charge:    2.6761    magn:    0.0080    constr:    0.0000
     atom:   67    charge:    1.6775    magn:    0.0912    constr:    0.0000
     atom:   68    charge:    2.6712    magn:   -0.0566    constr:    0.0000
     atom:   69    charge:    2.6770    magn:   -0.0012    constr:    0.0000
     atom:   70    charge:    2.6842    magn:   -0.0144    constr:    0.0000
     atom:   71    charge:    2.6788    magn:   -0.0019    constr:    0.0000
     atom:   72    charge:    2.6755    magn:   -0.0080    constr:    0.0000
     atom:   73    charge:    2.6699    magn:   -0.0069    constr:    0.0000
     atom:   74    charge:    2.6389    magn:   -0.0630    constr:    0.0000
     atom:   75    charge:    1.6946    magn:    0.1145    constr:    0.0000
     atom:   76    charge:    2.6714    magn:   -0.0013    constr:    0.0000
     atom:   77    charge:    2.6801    magn:   -0.0120    constr:    0.0000
     atom:   78    charge:    2.6837    magn:   -0.0020    constr:    0.0000
     atom:   79    charge:    2.6784    magn:   -0.0010    constr:    0.0000
     atom:   80    charge:    2.6787    magn:   -0.0085    constr:    0.0000
     atom:   81    charge:    2.6671    magn:   -0.0125    constr:    0.0000
     atom:   82    charge:    2.6789    magn:    0.0105    constr:    0.0000
     atom:   83    charge:    2.6729    magn:   -0.0080    constr:    0.0000
     atom:   84    charge:    2.6807    magn:   -0.0035    constr:    0.0000
     atom:   85    charge:    2.6771    magn:   -0.0017    constr:    0.0000
     atom:   86    charge:    2.6751    magn:   -0.0023    constr:    0.0000
     atom:   87    charge:    2.6762    magn:   -0.0011    constr:    0.0000
     atom:   88    charge:    2.6773    magn:   -0.0024    constr:    0.0000
     atom:   89    charge:    2.6773    magn:   -0.0019    constr:    0.0000
     atom:   90    charge:    2.6744    magn:   -0.0056    constr:    0.0000
     atom:   91    charge:    2.6775    magn:   -0.0023    constr:    0.0000
     atom:   92    charge:    2.6867    magn:   -0.0073    constr:    0.0000
     atom:   93    charge:    2.6753    magn:   -0.0062    constr:    0.0000
     atom:   94    charge:    2.6833    magn:   -0.0018    constr:    0.0000
     atom:   95    charge:    2.6805    magn:   -0.0067    constr:    0.0000
     atom:   96    charge:    2.6866    magn:   -0.0006    constr:    0.0000
     atom:   97    charge:    2.6789    magn:   -0.0105    constr:    0.0000
     atom:   98    charge:    2.6865    magn:   -0.0014    constr:    0.0000

     total cpu time spent up to now is     5493.1 secs

     End of self-consistent calculation

 ------ SPIN UP ------------


          k = 0.0000 0.0000 0.0000 ( 39989 PWs)   bands (ev):

   -25.9161 -25.6769 -25.4210 -25.3798 -25.3317 -25.3205 -25.2565 -24.8596
   -24.6120 -24.5841 -24.5544 -24.4670 -24.4514 -24.3186 -24.2226 -24.1796
   -24.1654 -24.0590 -24.0236 -23.4685 -23.2610 -23.2428 -23.2180 -23.1925
   -23.1917 -23.1780 -23.1633 -23.1570 -23.1521 -22.9674 -22.9551 -22.8319
   -22.7476 -22.7381 -22.7241 -22.5886 -22.5647 -22.3165 -22.3000 -22.2949
   -22.2702 -22.1831 -22.1730 -22.0808 -22.0747 -22.0551 -22.0411 -20.8379
   -18.8172 -16.3792 -15.7433 -15.7353 -15.7088 -15.6566 -15.6219 -15.5519
   -15.5129 -15.4669 -15.4331 -15.4135 -15.3760 -15.0852 -15.0176 -14.9658
   -14.9346 -14.9088 -14.8762 -14.3998 -14.2872 -14.2563 -14.2117 -14.2006
   -14.1663 -14.1606 -14.1551 -14.1520 -14.1135 -13.9640 -13.9366 -13.6732
   -13.4167 -13.4093 -13.4030 -13.3836 -13.2694 -12.7555 -12.7037 -12.6672
   -12.5914 -12.5588 -12.4966 -12.0423 -11.9653 -11.9294 -11.8828 -11.8701
   -11.8464 -11.8118 -11.6339 -11.5360 -11.4932 -11.4531 -11.4321 -11.4240
   -11.4166 -11.4013 -11.3821 -11.3786 -11.3673 -11.3638 -11.3595 -11.3490
   -11.3156 -11.2640 -11.2569 -11.2383 -11.2213 -11.1947 -11.1794 -11.1242
   -11.0844 -11.0060 -10.7124 -10.6845 -10.6624 -10.6528 -10.6271 -10.4203
   -10.2346 -10.1148 -10.0876 -10.0570 -10.0003  -9.9953  -9.9780  -9.9240
    -9.9094  -9.8309  -9.8226  -9.8040  -9.8009  -9.7696  -9.7441  -9.7272
    -9.6935  -9.6486  -9.5705  -9.5181  -9.5035  -9.4689  -9.4620  -9.4050
    -9.3403  -9.3076  -9.2882  -9.2287  -9.0349  -8.9119  -8.4662  -8.4413
    -8.4100  -8.3849  -8.2829  -8.1378  -8.0994  -8.0755  -8.0405  -8.0389
    -8.0346  -8.0126  -8.0046  -8.0009  -7.9807  -7.9557  -7.8428  -7.7632
    -7.5446  -7.4534  -7.4435  -7.3544  -7.3371  -7.3348  -7.2635  -7.1594
    -6.6251  -6.6038  -6.5711  -6.5240  -6.4501  -6.4344  -6.2790  -6.2583
    -6.2305  -6.1883  -6.0716  -4.7658  -0.6017  -0.1071   0.1235   0.1680
     0.1802   0.1927   0.2179   0.2255   0.2400   0.2978   0.6084   0.6125
     0.6350   0.6380   0.6427   0.6524   0.9611   0.9650   0.9715   0.9746
     0.9784   0.9831   1.0929   1.1291   1.1378   1.1596   1.1739   1.3018
     1.3631   1.3634   1.4357   1.4428   1.4583   1.4698   1.5459   1.5494
     1.5517   1.5548   1.5598   1.5663   1.5943   1.6348   1.6460   1.7128
     1.7336   1.7437   1.7668   1.9205   1.9227

 ------ SPIN DOWN ----------


          k = 0.0000 0.0000 0.0000 ( 39989 PWs)   bands (ev):

   -25.9830 -25.7147 -25.4444 -25.3993 -25.3489 -25.3375 -25.2732 -24.8960
   -24.6381 -24.5984 -24.5798 -24.4867 -24.4675 -24.3440 -24.2326 -24.2012
   -24.1889 -24.0659 -24.0448 -23.5017 -23.2852 -23.2664 -23.2454 -23.2194
   -23.2126 -23.2009 -23.1865 -23.1809 -23.1693 -22.9894 -22.9762 -22.8596
   -22.7751 -22.7613 -22.7354 -22.6035 -22.5880 -22.3519 -22.3283 -22.3174
   -22.2952 -22.2169 -22.1916 -22.1067 -22.0979 -22.0729 -22.0536 -20.7051
   -18.4646 -16.3354 -15.7415 -15.7370 -15.7095 -15.6506 -15.6209 -15.5533
   -15.5131 -15.4691 -15.4335 -15.4068 -15.3709 -15.0871 -15.0201 -14.9662
   -14.9352 -14.9061 -14.8695 -14.3961 -14.2905 -14.2615 -14.2157 -14.2046
   -14.1720 -14.1652 -14.1585 -14.1533 -14.1131 -13.9394 -13.9176 -13.6731
   -13.4177 -13.4114 -13.4010 -13.3847 -13.2594 -12.7627 -12.7075 -12.6724
   -12.5902 -12.5543 -12.4896 -12.0476 -11.9628 -11.9319 -11.8862 -11.8729
   -11.8622 -11.8119 -11.6393 -11.5417 -11.4975 -11.4570 -11.4374 -11.4307
   -11.4237 -11.4210 -11.4069 -11.3857 -11.3837 -11.3702 -11.3653 -11.3533
   -11.3155 -11.3003 -11.2639 -11.2454 -11.2203 -11.2164 -11.2114 -11.1309
   -11.0624 -10.9961 -10.7112 -10.6890 -10.6663 -10.6552 -10.6289 -10.4092
   -10.3401 -10.1665 -10.1273 -10.1097 -10.0066 -10.0035  -9.9885  -9.9302
    -9.9166  -9.8346  -9.8268  -9.8093  -9.8034  -9.7732  -9.7476  -9.7294
    -9.7291  -9.6869  -9.5919  -9.5733  -9.5570  -9.4557  -9.4227  -9.4088
    -9.3466  -9.3121  -9.2943  -9.2164  -9.0151  -8.8885  -8.4704  -8.4479
    -8.4158  -8.4151  -8.3911  -8.1653  -8.1432  -8.1290  -8.1188  -8.1110
    -8.0976  -8.0843  -8.0724  -8.0571  -8.0387  -7.9770  -7.8341  -7.7960
    -7.5343  -7.5250  -7.4292  -7.4227  -7.4119  -7.3802  -7.2629  -7.1674
    -6.7315  -6.7080  -6.6759  -6.6622  -6.5534  -6.5132  -6.3835  -6.3580
    -6.3488  -6.3147  -6.0481  -3.2994  -0.2056   0.1435   0.2535   0.4002
     0.4263   0.4354   0.4460   0.4564   0.4612   0.4729   0.8293   0.8369
     0.8410   0.8555   0.8563   0.8813   1.0426   1.0482   1.0530   1.0595
     1.0612   1.0705   1.1437   1.1545   1.1799   1.1897   1.2327   1.3159
     1.4092   1.4413   1.4433   1.4724   1.4828   1.4928   1.6045   1.6834
     1.6886   1.7325   1.7379   1.7391   1.7396   1.7412   1.7468   1.7500
     1.7538   1.8062   1.8368   2.1002   2.1005

     highest occupied, lowest unoccupied level (ev):    -6.0481   -6.0716

!    total energy              =   -1713.05262758 Ry
     Harris-Foulkes estimate   =   -1713.05621969 Ry
     estimated scf accuracy    <       0.00446254 Ry

     total magnetization       =     1.00 Bohr mag/cell
     absolute magnetization    =     2.94 Bohr mag/cell

     convergence has been achieved in   4 iterations

     Using ACE for calculation of exact exchange

     total energy              =   -1713.09438894 Ry
     Harris-Foulkes estimate   =   -1713.09798105 Ry
     est. exchange err (dexx)  =       0.04176136 Ry
     - averaged Fock potential =     193.43153656 Ry
     + Fock energy (ACE)       =     -96.73417510 Ry

     EXX: now go back to refine exchange calculation

     total cpu time spent up to now is     8120.4 secs

     Self-consistent Calculation

     iteration #  1     ecut=    25.73 Ry     beta= 0.70
     CG style diagonalization
     ethr =  4.38E-06,  avg # of iterations = 21.0

     negative rho (up, down):  3.054E+00 4.477E-02

     total cpu time spent up to now is     8179.5 secs

     total energy              =   -1713.01284168 Ry
     Harris-Foulkes estimate   =   -1713.09073983 Ry
     estimated scf accuracy    <       0.09127648 Ry

     total magnetization       =     1.00 Bohr mag/cell
     absolute magnetization    =     3.09 Bohr mag/cell

     iteration #  2     ecut=    25.73 Ry     beta= 0.70
     CG style diagonalization
     c_bands:  2 eigenvalues not converged
     ethr =  2.33E-05,  avg # of iterations =  4.3

     negative rho (up, down):  3.054E+00 4.499E-02

     total cpu time spent up to now is     8190.9 secs

     total energy              =   -1713.00661594 Ry
     Harris-Foulkes estimate   =   -1713.13817548 Ry
     estimated scf accuracy    <       0.33231282 Ry

     total magnetization       =     1.00 Bohr mag/cell
[...]
     absolute magnetization    =     3.30 Bohr mag/cell

     convergence has been achieved in   5 iterations

     Using ACE for calculation of exact exchange

     total energy              =   -1713.08115745 Ry
     Harris-Foulkes estimate   =   -1713.08970125 Ry
     est. exchange err (dexx)  =       0.01480083 Ry
     - averaged Fock potential =     193.41131544 Ry
     + Fock energy (ACE)       =     -96.70692872 Ry

     EXX: now go back to refine exchange calculation

     total cpu time spent up to now is    24720.6 secs

     Self-consistent Calculation

     iteration #  1     ecut=    25.73 Ry     beta= 0.70
     CG style diagonalization
     c_bands:  1 eigenvalues not converged
     ethr =  4.07E-06,  avg # of iterations = 22.9

     negative rho (up, down):  3.054E+00 4.541E-02

     total cpu time spent up to now is    24781.1 secs

     total energy              =   -1712.95320328 Ry
     Harris-Foulkes estimate   =   -1713.11379540 Ry
     estimated scf accuracy    <       0.18747071 Ry

     total magnetization       =     1.00 Bohr mag/cell
     absolute magnetization    =     3.17 Bohr mag/cell

     iteration #  2     ecut=    25.73 Ry     beta= 0.70
     CG style diagonalization
     c_bands:  1 eigenvalues not converged
     c_bands:  2 eigenvalues not converged
     ethr =  4.79E-05,  avg # of iterations =  4.4

     negative rho (up, down):  3.121E+00 3.681E-02

     total cpu time spent up to now is    24791.5 secs

     total energy              =   -1712.91630487 Ry
     Harris-Foulkes estimate   =   -1713.26351873 Ry
     estimated scf accuracy    <       0.98991710 Ry

     total magnetization       =     1.00 Bohr mag/cell
     absolute magnetization    =     3.34 Bohr mag/cell

     iteration #  3     ecut=    25.73 Ry     beta= 0.70
     CG style diagonalization
     c_bands:  1 eigenvalues not converged
     ethr =  4.79E-05,  avg # of iterations =  4.0

     negative rho (up, down):  3.091E+00 4.055E-02

     total cpu time spent up to now is    24801.0 secs

     total energy              =   -1713.07355509 Ry
     Harris-Foulkes estimate   =   -1713.09959474 Ry
     estimated scf accuracy    <       0.08224810 Ry

     total magnetization       =     1.00 Bohr mag/cell
     absolute magnetization    =     3.36 Bohr mag/cell

     iteration #  4     ecut=    25.73 Ry     beta= 0.70
     CG style diagonalization
     ethr =  2.10E-05,  avg # of iterations =  3.1

     negative rho (up, down):  3.081E+00 4.193E-02

     total cpu time spent up to now is    24808.0 secs

     total energy              =   -1713.07960983 Ry
     Harris-Foulkes estimate   =   -1713.08143341 Ry
     estimated scf accuracy    <       0.00986411 Ry

     total magnetization       =     1.00 Bohr mag/cell
     absolute magnetization    =     3.28 Bohr mag/cell

     iteration #  5     ecut=    25.73 Ry     beta= 0.70
     CG style diagonalization
     ethr =  2.52E-06,  avg # of iterations =  3.7

     negative rho (up, down):  3.044E+00 4.671E-02
 
     Magnetic moment per site:
     atom:    1    charge:    0.8255    magn:    0.0013    constr:    0.0000
     atom:    2    charge:    0.8196    magn:    0.0005    constr:    0.0000
     atom:    3    charge:    0.8202    magn:    0.0012    constr:    0.0000
     atom:    4    charge:    0.8218    magn:    0.0008    constr:    0.0000
     atom:    5    charge:    0.8241    magn:    0.0015    constr:    0.0000
     atom:    6    charge:    0.8246    magn:    0.0026    constr:    0.0000
     atom:    7    charge:    0.8243    magn:    0.0010    constr:    0.0000
     atom:    8    charge:    0.8215    magn:    0.0023    constr:    0.0000
     atom:    9    charge:    0.8235    magn:    0.0010    constr:    0.0000
     atom:   10    charge:    0.8107    magn:    0.0039    constr:    0.0000
     atom:   11    charge:    0.8203    magn:    0.0014    constr:    0.0000
     atom:   12    charge:    0.8237    magn:    0.0032    constr:    0.0000
     atom:   13    charge:    0.8206    magn:    0.0035    constr:    0.0000
     atom:   14    charge:    0.8245    magn:    0.0028    constr:    0.0000
     atom:   15    charge:    0.8237    magn:    0.0027    constr:    0.0000
     atom:   16    charge:    0.8251    magn:    0.0016    constr:    0.0000
     atom:   17    charge:    0.8339    magn:    0.0041    constr:    0.0000
     atom:   18    charge:    0.8195    magn:    0.0077    constr:    0.0000
     atom:   19    charge:    0.8318    magn:    0.0035    constr:    0.0000
     atom:   20    charge:    0.8232    magn:    0.0026    constr:    0.0000
     atom:   21    charge:    0.8248    magn:    0.0031    constr:    0.0000
     atom:   22    charge:    0.8197    magn:    0.0014    constr:    0.0000
     atom:   23    charge:    0.8178    magn:    0.0019    constr:    0.0000
     atom:   24    charge:    0.8122    magn:    0.0007    constr:    0.0000
     atom:   25    charge:    1.5419    magn:   -0.0438    constr:    0.0000
     atom:   26    charge:    0.8208    magn:    0.0087    constr:    0.0000
     atom:   27    charge:    0.8199    magn:    0.0011    constr:    0.0000
     atom:   28    charge:    0.8221    magn:    0.0023    constr:    0.0000
     atom:   29    charge:    0.8190    magn:    0.0003    constr:    0.0000
     atom:   30    charge:    0.8196    magn:    0.0007    constr:    0.0000
     atom:   31    charge:    0.8191    magn:    0.0003    constr:    0.0000
     atom:   32    charge:    0.8117    magn:   -0.0004    constr:    0.0000
     atom:   33    charge:    0.8342    magn:    0.0024    constr:    0.0000
     atom:   34    charge:    0.8106    magn:    0.0030    constr:    0.0000
     atom:   35    charge:    0.8203    magn:    0.0014    constr:    0.0000
     atom:   36    charge:    0.8180    magn:   -0.0000    constr:    0.0000
     atom:   37    charge:    0.8201    magn:    0.0003    constr:    0.0000
     atom:   38    charge:    0.8193    magn:   -0.0006    constr:    0.0000
     atom:   39    charge:    0.8172    magn:    0.0002    constr:    0.0000
     atom:   40    charge:    0.8245    magn:    0.0001    constr:    0.0000
     atom:   41    charge:    0.8231    magn:   -0.0002    constr:    0.0000
     atom:   42    charge:    0.8198    magn:    0.0005    constr:    0.0000
     atom:   43    charge:    0.8170    magn:    0.0003    constr:    0.0000
     atom:   44    charge:    0.8182    magn:    0.0003    constr:    0.0000
     atom:   45    charge:    0.8188    magn:   -0.0005    constr:    0.0000
     atom:   46    charge:    0.8196    magn:    0.0009    constr:    0.0000
     atom:   47    charge:    0.8226    magn:   -0.0005    constr:    0.0000
     atom:   48    charge:    0.8214    magn:    0.0013    constr:    0.0000
     atom:   49    charge:    0.8248    magn:   -0.0002    constr:    0.0000
     atom:   50    charge:    2.6778    magn:   -0.0234    constr:    0.0000
     atom:   51    charge:    2.6744    magn:   -0.0050    constr:    0.0000
     atom:   52    charge:    2.6772    magn:   -0.0053    constr:    0.0000
     atom:   53    charge:    2.6727    magn:   -0.0132    constr:    0.0000
     atom:   54    charge:    2.6760    magn:   -0.0095    constr:    0.0000
     atom:   55    charge:    2.6619    magn:   -0.0574    constr:    0.0000
     atom:   56    charge:    2.6816    magn:   -0.0019    constr:    0.0000
     atom:   57    charge:    2.6586    magn:   -0.0444    constr:    0.0000
     atom:   58    charge:    2.6749    magn:    0.0015    constr:    0.0000
     atom:   59    charge:    2.6680    magn:   -0.0089    constr:    0.0000
     atom:   60    charge:    2.6696    magn:    0.0087    constr:    0.0000
     atom:   61    charge:    2.6656    magn:   -0.0391    constr:    0.0000
     atom:   62    charge:    2.6729    magn:   -0.0235    constr:    0.0000
     atom:   63    charge:    2.6751    magn:   -0.0262    constr:    0.0000
     atom:   64    charge:    2.6875    magn:   -0.0054    constr:    0.0000
     atom:   65    charge:    2.6664    magn:   -0.0236    constr:    0.0000
     atom:   66    charge:    2.6713    magn:   -0.0031    constr:    0.0000
     atom:   67    charge:    1.7013    magn:    0.1386    constr:    0.0000
     atom:   68    charge:    2.6865    magn:   -0.0363    constr:    0.0000
     atom:   69    charge:    2.6766    magn:    0.0000    constr:    0.0000
     atom:   70    charge:    2.6608    magn:   -0.0478    constr:    0.0000
     atom:   71    charge:    2.6758    magn:   -0.0048    constr:    0.0000
     atom:   72    charge:    2.6665    magn:   -0.0206    constr:    0.0000
     atom:   73    charge:    2.6736    magn:   -0.0006    constr:    0.0000
     atom:   74    charge:    2.6690    magn:   -0.0278    constr:    0.0000
     atom:   75    charge:    1.6997    magn:    0.1163    constr:    0.0000
     atom:   76    charge:    2.6687    magn:    0.0071    constr:    0.0000
     atom:   77    charge:    2.6699    magn:   -0.0143    constr:    0.0000
     atom:   78    charge:    2.6803    magn:   -0.0043    constr:    0.0000
     atom:   79    charge:    2.6743    magn:   -0.0031    constr:    0.0000
     atom:   80    charge:    2.6833    magn:   -0.0019    constr:    0.0000
     atom:   81    charge:    2.6729    magn:   -0.0075    constr:    0.0000
     atom:   82    charge:    2.6758    magn:    0.0098    constr:    0.0000
     atom:   83    charge:    2.6725    magn:   -0.0016    constr:    0.0000
     atom:   84    charge:    2.6780    magn:   -0.0025    constr:    0.0000
     atom:   85    charge:    2.6735    magn:   -0.0012    constr:    0.0000
     atom:   86    charge:    2.6711    magn:   -0.0016    constr:    0.0000
     atom:   87    charge:    2.6761    magn:   -0.0001    constr:    0.0000
     atom:   88    charge:    2.6744    magn:   -0.0049    constr:    0.0000
     atom:   89    charge:    2.6745    magn:   -0.0035    constr:    0.0000
     atom:   90    charge:    2.6741    magn:   -0.0024    constr:    0.0000
     atom:   91    charge:    2.6753    magn:   -0.0033    constr:    0.0000
     atom:   92    charge:    2.6835    magn:   -0.0032    constr:    0.0000
     atom:   93    charge:    2.6729    magn:   -0.0042    constr:    0.0000
     atom:   94    charge:    2.6821    magn:   -0.0007    constr:    0.0000
     atom:   95    charge:    2.6731    magn:   -0.0149    constr:    0.0000
     atom:   96    charge:    2.6880    magn:   -0.0017    constr:    0.0000
     atom:   97    charge:    2.6688    magn:   -0.0212    constr:    0.0000
     atom:   98    charge:    2.6804    magn:   -0.0092    constr:    0.0000

     total cpu time spent up to now is    24816.5 secs

     End of self-consistent calculation

 ------ SPIN UP ------------


          k = 0.0000 0.0000 0.0000 ( 39989 PWs)   bands (ev):

   -25.8499 -25.6384 -25.3626 -25.3273 -25.2868 -25.2395 -25.2126 -24.7943
   -24.5492 -24.5114 -24.5042 -24.4358 -24.4129 -24.2829 -24.1553 -24.1319
   -24.1070 -23.9880 -23.9672 -23.4192 -23.2039 -23.1775 -23.1748 -23.1510
   -23.1383 -23.1243 -23.1149 -23.1019 -23.0883 -22.8998 -22.8973 -22.7468
   -22.7383 -22.7138 -22.6966 -22.4981 -22.4746 -22.2621 -22.2473 -22.2361
   -22.2271 -22.1412 -22.1207 -22.0677 -22.0581 -21.9663 -21.9591 -20.6747
   -18.7149 -16.2646 -15.6973 -15.6758 -15.6472 -15.6304 -15.6110 -15.5449
   -15.4545 -15.4342 -15.3747 -15.3365 -15.3151 -15.0653 -14.9731 -14.8947
   -14.8839 -14.8479 -14.8404 -14.3435 -14.2124 -14.1998 -14.1674 -14.1439
   -14.1240 -14.1175 -14.1076 -14.0859 -14.0834 -13.9100 -13.8679 -13.6247
   -13.4015 -13.3957 -13.3144 -13.2967 -13.2242 -12.6971 -12.6492 -12.6155
   -12.5428 -12.4994 -12.4424 -11.9915 -11.9124 -11.8968 -11.8329 -11.8294
   -11.8011 -11.7617 -11.5861 -11.4761 -11.4152 -11.3965 -11.3865 -11.3840
   -11.3754 -11.3724 -11.3387 -11.3374 -11.3302 -11.3251 -11.3190 -11.3133
   -11.2513 -11.2033 -11.1833 -11.1701 -11.1668 -11.1323 -11.1131 -11.0883
   -11.0362 -10.9656 -10.6906 -10.6497 -10.6280 -10.6011 -10.5483 -10.3207
   -10.1807 -10.0483 -10.0228 -10.0037  -9.9500  -9.9485  -9.9335  -9.8763
    -9.8484  -9.8436  -9.7906  -9.7805  -9.7524  -9.7288  -9.6950  -9.6273
    -9.6192  -9.5923  -9.4953  -9.4848  -9.4487  -9.4054  -9.3917  -9.3679
    -9.2884  -9.2585  -9.2431  -9.1506  -8.9885  -8.8707  -8.4281  -8.3979
    -8.3673  -8.3402  -8.2368  -8.0349  -8.0241  -8.0187  -7.9938  -7.9820
    -7.9775  -7.9469  -7.9421  -7.9356  -7.9126  -7.8937  -7.8109  -7.6971
    -7.4319  -7.4009  -7.3990  -7.2948  -7.2773  -7.2583  -7.2225  -7.1231
    -6.5823  -6.5414  -6.5131  -6.4568  -6.4057  -6.3433  -6.2405  -6.1986
    -6.1372  -6.0793  -5.7945  -5.2688  -0.5889  -0.1056   0.1727   0.1945
     0.2039   0.2171   0.2275   0.2319   0.2433   0.2913   0.6045   0.6170
     0.6287   0.6350   0.6402   0.6582   0.9508   0.9582   0.9625   0.9686
     0.9703   0.9757   1.1605   1.1825   1.1964   1.2163   1.2270   1.3359
     1.3637   1.4254   1.4441   1.4620   1.5223   1.5375   1.5542   1.5552
     1.5629   1.5642   1.5679   1.5710   1.6419   1.6845   1.6992   1.7334
     1.7464   1.7768   1.8142   1.9187   1.9149

 ------ SPIN DOWN ----------


          k = 0.0000 0.0000 0.0000 ( 39989 PWs)   bands (ev):

   -25.8915 -25.6937 -25.3965 -25.3637 -25.3150 -25.2535 -25.2319 -24.8326
   -24.5782 -24.5365 -24.5269 -24.4751 -24.4372 -24.3205 -24.1788 -24.1460
   -24.1333 -24.0034 -23.9811 -23.4566 -23.2541 -23.2217 -23.2027 -23.1940
   -23.1655 -23.1562 -23.1356 -23.1190 -23.1176 -22.9308 -22.9179 -22.7922
   -22.7634 -22.7555 -22.7269 -22.5055 -22.4886 -22.3185 -22.3061 -22.2672
   -22.2517 -22.1718 -22.1530 -22.0986 -22.0843 -21.9821 -21.9733 -20.4987
   -18.2481 -16.2058 -15.6963 -15.6789 -15.6491 -15.6337 -15.6130 -15.5466
   -15.4460 -15.4343 -15.3752 -15.3294 -15.3089 -15.0680 -14.9800 -14.8968
   -14.8793 -14.8432 -14.8363 -14.3406 -14.2144 -14.2050 -14.1737 -14.1490
   -14.1290 -14.1228 -14.1144 -14.0868 -14.0849 -13.8741 -13.8418 -13.6265
   -13.4076 -13.3993 -13.3101 -13.2951 -13.2117 -12.7047 -12.6557 -12.6211
   -12.5398 -12.4923 -12.4345 -11.9983 -11.9157 -11.8972 -11.8386 -11.8358
   -11.8337 -11.7641 -11.5932 -11.4819 -11.4216 -11.4076 -11.3999 -11.3911
   -11.3902 -11.3839 -11.3773 -11.3460 -11.3383 -11.3271 -11.3234 -11.3134
   -11.2679 -11.2505 -11.2330 -11.1853 -11.1718 -11.1581 -11.1228 -11.0703
   -11.0122 -10.9566 -10.6991 -10.6448 -10.6354 -10.5991 -10.5497 -10.3038
   -10.2907 -10.1105 -10.0828 -10.0592  -9.9973  -9.9549  -9.9529  -9.8841
    -9.8593  -9.8508  -9.8025  -9.7859  -9.7608  -9.7338  -9.6998  -9.6954
    -9.6228  -9.6102  -9.5517  -9.5244  -9.5115  -9.3748  -9.3690  -9.3454
    -9.2958  -9.2684  -9.2450  -9.1305  -8.9732  -8.8368  -8.4375  -8.4067
    -8.3745  -8.3744  -8.3424  -8.1579  -8.1177  -8.0956  -8.0923  -8.0598
    -8.0473  -8.0287  -8.0194  -8.0087  -7.9985  -7.9092  -7.7868  -7.7483
    -7.4737  -7.4423  -7.4073  -7.3926  -7.3730  -7.3480  -7.1661  -7.0950
    -6.7100  -6.7053  -6.6502  -6.6195  -6.5188  -6.5114  -6.3942  -6.3624
    -6.2754  -6.2511  -5.9090  -3.0137  -0.2099   0.1736   0.3605   0.3937
     0.4213   0.4363   0.4440   0.4471   0.4567   0.4593   0.8191   0.8267
     0.8366   0.8414   0.8456   0.8612   1.0352   1.0426   1.0476   1.0491
     1.0527   1.0572   1.1754   1.2106   1.2390   1.2521   1.2698   1.3464
     1.4430   1.4738   1.4769   1.5147   1.5346   1.5492   1.6578   1.7282
     1.7295   1.7364   1.7367   1.7394   1.7422   1.7455   1.7659   1.7742
     1.7897   1.8308   1.8548   2.0755   2.1064

     highest occupied, lowest unoccupied level (ev):    -5.9090   -5.7945

!    total energy              =   -1713.07526878 Ry
     Harris-Foulkes estimate   =   -1713.08038058 Ry
     estimated scf accuracy    <       0.00557938 Ry

     total magnetization       =     1.00 Bohr mag/cell
     absolute magnetization    =     3.29 Bohr mag/cell

     convergence has been achieved in   5 iterations

     Using ACE for calculation of exact exchange

!!   total energy              =   -1713.08422229 Ry
     Harris-Foulkes estimate   =   -1713.08933409 Ry
     est. exchange err (dexx)  =       0.00895351 Ry
     - averaged Fock potential =     193.40711947 Ry
     + Fock energy (ACE)       =     -96.70914426 Ry

     EXX self-consistency reached

     Writing output data file C2Cn.save/
 
     init_run     :      1.37s CPU      1.46s WALL (       1 calls)
     electrons    :    835.34s CPU    848.66s WALL (      10 calls)

     Called by init_run:
     wfcinit      :      0.62s CPU      0.65s WALL (       1 calls)
     potinit      :      0.38s CPU      0.39s WALL (       1 calls)
     hinit0       :      0.23s CPU      0.24s WALL (       1 calls)

     Called by electrons:
     c_bands      :    784.77s CPU    793.14s WALL (      52 calls)
     sum_band     :      8.55s CPU      8.68s WALL (      52 calls)
     v_of_rho     :      9.70s CPU      9.78s WALL (      54 calls)
     newd         :      4.40s CPU      4.45s WALL (      53 calls)
     PAW_pot      :     10.77s CPU     10.90s WALL (      54 calls)
     mix_rho      :      0.37s CPU      0.38s WALL (      52 calls)

     Called by c_bands:
     init_us_2    :      4.75s CPU      4.87s WALL (    5130 calls)
     rcgdiagg     :    766.54s CPU    774.62s WALL (     122 calls)
     wfcrot       :     18.42s CPU     18.63s WALL (     104 calls)

     Called by sum_band:
     sum_band:bec :      0.04s CPU      0.04s WALL (     104 calls)
     addusdens    :      0.63s CPU      0.64s WALL (      52 calls)

     Called by *cgdiagg:
     h_psi        :    427.10s CPU    431.85s WALL (  136930 calls)
     s_psi        :     89.25s CPU     90.44s WALL (  273756 calls)
     rdiaghg      :      1.89s CPU      1.90s WALL (     104 calls)

     Called by h_psi:
     h_psi:pot    :    330.13s CPU    333.86s WALL (  136930 calls)
     h_psi:calbec :    133.66s CPU    135.10s WALL (  136930 calls)
     vloc_psi     :    148.71s CPU    150.62s WALL (  136930 calls)
     add_vuspsi   :     46.87s CPU     47.38s WALL (  136930 calls)
     hs_1psi      :    462.95s CPU    468.05s WALL (  136826 calls)
     s_1psi       :    144.95s CPU    146.12s WALL (  136826 calls)

     General routines
     calbec       :    322.89s CPU    326.40s WALL (  395975 calls)
     fft          :      3.51s CPU      3.52s WALL (     891 calls)
     ffts         :      0.12s CPU      0.12s WALL (     104 calls)
     fftw         :    147.78s CPU    149.69s WALL (  312320 calls)
     fftc         :   5190.73s CPU   5208.51s WALL (  965300 calls)
     fftcw        :      5.15s CPU      5.19s WALL (    9820 calls)
 
     Parallel routines
     fft_scatt_xy :     20.13s CPU     20.21s WALL ( 1288435 calls)
     fft_scatt_yz :   5003.04s CPU   5021.02s WALL ( 1288435 calls)

     EXX routines
     exx_grid     :      0.00s CPU      0.00s WALL (       1 calls)
     exxinit      :      2.88s CPU      2.92s WALL (      10 calls)
     vexx         :  26366.21s CPU  26455.66s WALL (      20 calls)
     matcalc      :     85.35s CPU     86.27s WALL (  122095 calls)
     aceupdate    :      0.05s CPU      0.05s WALL (      20 calls)
     vexxace      :     96.67s CPU     97.75s WALL (  122037 calls)
     aceinit      :  26366.44s CPU  26455.90s WALL (      20 calls)

     EXX+US  routines
     becxx        :      0.01s CPU      0.02s WALL (      10 calls)
     addusxx      :   9983.84s CPU  10015.84s WALL (  965300 calls)
     newdxx       :   9845.15s CPU   9880.56s WALL (  965300 calls)
     qvan_init    :      0.08s CPU      0.12s WALL (      20 calls)
     nlxx_pot     :      6.41s CPU      6.52s WALL (    4900 calls)

     EXX+PAW routines
     PAW_newdxx   :   1258.19s CPU   1264.33s WALL (  965300 calls)
 
     PWSCF        :      7h33m CPU      7h35m WALL

 
   This run was terminated on:  19:21:27   2Aug2021            

=------------------------------------------------------------------------------=
   JOB DONE.
=------------------------------------------------------------------------------=
