
     Program PWSCF v.6.4.1 starts on  1Jul2021 at 13:43:53 

     This program is part of the open-source Quantum ESPRESSO suite
     for quantum simulation of materials; please cite
         "P. Giannozzi et al., J. Phys.:Condens. Matter 21 395502 (2009);
         "P. Giannozzi et al., J. Phys.:Condens. Matter 29 465901 (2017);
          URL http://www.quantum-espresso.org", 
     in publications or presentations arising from this work. More details at
     http://www.quantum-espresso.org/quote

     Parallel version (MPI), running on    64 processors

     MPI processes distributed on     2 nodes
     R & G space division:  proc/nbgrp/npool/nimage =      64
     Waiting for input...
     Reading input from standard input

     Current dimensions of program PWSCF are:
     Max number of different atomic species (ntypx) = 10
     Max number of k-points (npk) =  40000
     Max angular momentum in pseudopotentials (lmaxx) =  3
               file N.pbe-n-kjpaw_psl.1.0.0.UPF: wavefunction(s)  2S renormalized
               file C.pbe-n-kjpaw_psl.1.0.0.UPF: wavefunction(s)  2S 2P renormalized
               file C.pbe-n-kjpaw_psl.1.0.0.UPF: wavefunction(s)  2S 2P renormalized
               file C.pbe-n-kjpaw_psl.1.0.0.UPF: wavefunction(s)  2S 2P renormalized

     --------------------------------------------
     Parameters for DFT-D3 Dispersion Correction:
     --------------------------------------------
       Reference C6 values for interpolation: 

         atom   Coordination number   C6
         B          0.000           214.36
         B          0.971           150.74
         B          1.944           106.23
         B          2.913            62.89
         B          4.586            56.06
         C1         0.000            98.23
         C1         0.987            86.49
         C1         1.998            58.72
         C1         2.999            51.56
         C1         3.984            36.41
         C2         0.000            98.23
         C2         0.987            86.49
         C2         1.998            58.72
         C2         2.999            51.56
         C2         3.984            36.41
         C3         0.000            98.23
         C3         0.987            86.49
         C3         1.998            58.72
         C3         2.999            51.56
         C3         3.984            36.41
         N          0.000            50.54
         N          0.994            44.25
         N          2.014            39.35
         N          2.990            31.16

       Values used:

         atom   Coordination number  R0_AB[au]  C6      C8
         B          3.323            3.039     62.90   2506.30
         B          3.323            3.039     62.90   2506.30
         B          3.323            3.039     62.90   2506.30
         B          3.323            3.039     62.90   2506.31
         B          3.323            3.039     62.90   2506.30
         B          3.323            3.039     62.90   2506.30
         B          3.323            3.039     62.90   2506.30
         B          3.323            3.039     62.90   2506.30
         B          3.323            3.039     62.90   2506.30
         B          3.325            3.039     62.90   2506.25
         B          3.323            3.039     62.90   2506.30
         B          3.323            3.039     62.90   2506.30
         B          3.323            3.039     62.90   2506.30
         B          3.323            3.039     62.90   2506.30
         B          3.323            3.039     62.90   2506.30
         B          3.323            3.039     62.90   2506.30
         B          3.317            3.039     62.90   2506.45
         B          3.319            3.039     62.90   2506.40
         B          3.323            3.039     62.90   2506.29
         B          3.323            3.039     62.90   2506.30
         B          3.323            3.039     62.90   2506.30
         B          3.323            3.039     62.90   2506.30
         B          3.323            3.039     62.90   2506.30
         B          3.317            3.039     62.90   2506.43
         C2         3.274            2.750     49.03   1417.98
         B          3.319            3.039     62.90   2506.40
         B          3.323            3.039     62.90   2506.30
         B          3.323            3.039     62.90   2506.31
         B          3.323            3.039     62.90   2506.30
         B          3.323            3.039     62.90   2506.30
         B          3.323            3.039     62.90   2506.30
         B          3.317            3.039     62.90   2506.43
         B          3.317            3.039     62.90   2506.45
         B          3.325            3.039     62.90   2506.25
         B          3.323            3.039     62.90   2506.30
         B          3.323            3.039     62.90   2506.30
         B          3.323            3.039     62.90   2506.30
         B          3.323            3.039     62.90   2506.30
         B          3.323            3.039     62.90   2506.30
         B          3.323            3.039     62.90   2506.30
         B          3.323            3.039     62.90   2506.30
         B          3.323            3.039     62.90   2506.30
         B          3.323            3.039     62.90   2506.30
         B          3.323            3.039     62.90   2506.30
         B          3.323            3.039     62.90   2506.30
         B          3.323            3.039     62.90   2506.30
         B          3.323            3.039     62.90   2506.30
         B          3.323            3.039     62.90   2506.30
         B          3.323            3.039     62.90   2506.30
         N          3.129            2.478     31.22    688.75
         N          3.129            2.478     31.22    688.75
         N          3.129            2.478     31.22    688.75
         N          3.129            2.478     31.22    688.75
         N          3.129            2.478     31.22    688.75
         N          3.129            2.478     31.22    688.75
         N          3.129            2.478     31.22    688.75
         N          3.129            2.478     31.22    688.75
         N          3.129            2.478     31.22    688.75
         N          3.136            2.478     31.22    688.68
         N          3.136            2.478     31.22    688.68
         N          3.129            2.478     31.22    688.75
         N          3.129            2.478     31.22    688.75
         N          3.129            2.478     31.22    688.75
         N          3.129            2.478     31.22    688.75
         N          3.129            2.478     31.22    688.75
         N          3.135            2.478     31.22    688.68
         C1         3.195            2.750     50.11   1449.31
         N          3.143            2.478     31.21    688.62
         N          3.129            2.478     31.22    688.75
         N          3.129            2.478     31.22    688.75
         N          3.129            2.478     31.22    688.75
         N          3.129            2.478     31.22    688.75
         N          3.129            2.478     31.22    688.75
         N          3.143            2.478     31.21    688.62
         C3         3.195            2.750     50.11   1449.31
         N          3.136            2.478     31.22    688.68
         N          3.129            2.478     31.22    688.75
         N          3.129            2.478     31.22    688.75
         N          3.129            2.478     31.22    688.75
         N          3.129            2.478     31.22    688.75
         N          3.129            2.478     31.22    688.75
         N          3.135            2.478     31.22    688.68
         N          3.136            2.478     31.22    688.68
         N          3.129            2.478     31.22    688.75
         N          3.129            2.478     31.22    688.75
         N          3.129            2.478     31.22    688.75
         N          3.129            2.478     31.22    688.75
         N          3.129            2.478     31.22    688.75
         N          3.129            2.478     31.22    688.75
         N          3.129            2.478     31.22    688.75
         N          3.129            2.478     31.22    688.75
         N          3.129            2.478     31.22    688.75
         N          3.129            2.478     31.22    688.75
         N          3.129            2.478     31.22    688.75
         N          3.129            2.478     31.22    688.75
         N          3.129            2.478     31.22    688.75
         N          3.129            2.478     31.22    688.75
         N          3.129            2.478     31.22    688.75

         Molecular C6 ( Ry / a.u.^6 ) =    437644.59


     gamma-point specific algorithms are used

     Subspace diagonalization in iterative solution of the eigenvalue problem:
     one sub-group per band group will be used
     scalapack distributed-memory algorithm (size of sub-group:  5*  5 procs)

     Message from routine setup:
     DEPRECATED: symmetry with ibrav=0, use correct ibrav instead
 
     Parallelization info
     --------------------
     sticks:   dense  smooth     PW     G-vecs:    dense   smooth      PW
     Min         188     188     46                19260    19260    2398
     Max         190     190     48                19286    19286    2416
     Sum       12145   12145   3049              1233789  1233789  154157
 


     bravais-lattice index     =            0
     lattice parameter (alat)  =      33.2346  a.u.
     unit-cell volume          =   36104.5892 (a.u.)^3
     number of atoms/cell      =           98
     number of atomic types    =            5
     number of electrons       =       391.00
     number of Kohn-Sham states=          245
     kinetic-energy cutoff     =      40.0000  Ry
     charge density cutoff     =     160.0000  Ry
     convergence threshold     =      1.0E-06
     mixing beta               =       0.7000
     number of iterations used =            8  plain     mixing
     Exchange-correlation      = SLA PW PBX PBC ( 1  4  3  4 0 0)
     Using LIBXC version       =    4   3   4
     nstep                     =           50


     celldm(1)=  33.234611  celldm(2)=   0.000000  celldm(3)=   0.000000
     celldm(4)=   0.000000  celldm(5)=   0.000000  celldm(6)=   0.000000

     crystal axes: (cart. coord. in units of alat)
               a(1) = (   0.999334   0.000000   0.000000 )  
               a(2) = (  -0.499667   0.865449   0.000000 )  
               a(3) = (   0.000000   0.000000   1.137204 )  

     reciprocal axes: (cart. coord. in units 2 pi/alat)
               b(1) = (  1.000666  0.577735  0.000000 )  
               b(2) = (  0.000000  1.155470  0.000000 )  
               b(3) = (  0.000000  0.000000  0.879350 )  


     PseudoPot. # 1 for B  read from file:
     ./pseudo/B.pbe-n-kjpaw_psl.1.0.0.UPF
     MD5 check sum: 8c825a5969375aca5c2c6ad5945b3059
     Pseudo is Projector augmented-wave + core cor, Zval =  3.0
     Generated using "atomic" code by A. Dal Corso v.6.3
     Shape of augmentation charge: PSQ
     Using radial grid of 1059 points,  4 beta functions with: 
                l(1) =   0
                l(2) =   0
                l(3) =   1
                l(4) =   1
     Q(r) pseudized with 0 coefficients 


     PseudoPot. # 2 for N  read from file:
     ./pseudo/N.pbe-n-kjpaw_psl.1.0.0.UPF
     MD5 check sum: 14c48229446f9f2d411169a3abcbc3fa
     Pseudo is Projector augmented-wave + core cor, Zval =  5.0
     Generated using "atomic" code by A. Dal Corso v.6.3
     Shape of augmentation charge: PSQ
     Using radial grid of 1085 points,  4 beta functions with: 
                l(1) =   0
                l(2) =   0
                l(3) =   1
                l(4) =   1
     Q(r) pseudized with 0 coefficients 


     PseudoPot. # 3 for C  read from file:
     ./pseudo/C.pbe-n-kjpaw_psl.1.0.0.UPF
     MD5 check sum: 5f16ad9a65e90284d1d834d4ab3b0f7d
     Pseudo is Projector augmented-wave + core cor, Zval =  4.0
     Generated using "atomic" code by A. Dal Corso v.6.3
     Shape of augmentation charge: PSQ
     Using radial grid of 1073 points,  4 beta functions with: 
                l(1) =   0
                l(2) =   0
                l(3) =   1
                l(4) =   1
     Q(r) pseudized with 0 coefficients 


     PseudoPot. # 4 for C  read from file:
     ./pseudo/C.pbe-n-kjpaw_psl.1.0.0.UPF
     MD5 check sum: 5f16ad9a65e90284d1d834d4ab3b0f7d
     Pseudo is Projector augmented-wave + core cor, Zval =  4.0
     Generated using "atomic" code by A. Dal Corso v.6.3
     Shape of augmentation charge: PSQ
     Using radial grid of 1073 points,  4 beta functions with: 
                l(1) =   0
                l(2) =   0
                l(3) =   1
                l(4) =   1
     Q(r) pseudized with 0 coefficients 


     PseudoPot. # 5 for C  read from file:
     ./pseudo/C.pbe-n-kjpaw_psl.1.0.0.UPF
     MD5 check sum: 5f16ad9a65e90284d1d834d4ab3b0f7d
     Pseudo is Projector augmented-wave + core cor, Zval =  4.0
     Generated using "atomic" code by A. Dal Corso v.6.3
     Shape of augmentation charge: PSQ
     Using radial grid of 1073 points,  4 beta functions with: 
                l(1) =   0
                l(2) =   0
                l(3) =   1
                l(4) =   1
     Q(r) pseudized with 0 coefficients 


     atomic species   valence    mass     pseudopotential
        B              3.00    10.00000     B ( 1.00)
        N              5.00    14.00000     N ( 1.00)
        C1             4.00    12.00000     C ( 1.00)
        C2             4.00    12.00000     C ( 1.00)
        C3             4.00    12.00000     C ( 1.00)

     Starting magnetic structure 
     atomic species   magnetization
        B            0.000
        N            0.000
        C1           1.000
        C2           0.000
        C3           0.000

      2 Sym. Ops. (no inversion) found



   Cartesian axes

     site n.     atom                  positions (alat units)
         1           B   tau(   1) = (  -0.0000000   0.0824309   0.5686018  )
         2           B   tau(   2) = (  -0.0713829   0.2060622   0.5686018  )
         3           B   tau(   3) = (  -0.1427568   0.3296890   0.5686018  )
         4           B   tau(   4) = (  -0.2141395   0.4533331   0.5686018  )
         5           B   tau(   5) = (  -0.2855266   0.5769736   0.5686018  )
         6           B   tau(   6) = (  -0.3569036   0.7005986   0.5686018  )
         7           B   tau(   7) = (  -0.4282799   0.8242336   0.5686018  )
         8           B   tau(   8) = (   0.1427700   0.0824283   0.5686018  )
         9           B   tau(   9) = (   0.0713829   0.2060622   0.5686018  )
        10           B   tau(  10) = (  -0.0000000   0.3296942   0.5686018  )
        11           B   tau(  11) = (  -0.0713745   0.4533335   0.5686018  )
        12           B   tau(  12) = (  -0.1427567   0.5769711   0.5686018  )
        13           B   tau(  13) = (  -0.2141437   0.7006019   0.5686018  )
        14           B   tau(  14) = (  -0.2855207   0.8242373   0.5686018  )
        15           B   tau(  15) = (   0.2855205   0.0824268   0.5686018  )
        16           B   tau(  16) = (   0.2141440   0.2060546   0.5686018  )
        17           B   tau(  17) = (   0.1427568   0.3296890   0.5686018  )
        18           B   tau(  18) = (   0.0713735   0.4533335   0.5686018  )
        19           B   tau(  19) = (  -0.0000005   0.5769663   0.5686018  )
        20           B   tau(  20) = (  -0.0713827   0.7005944   0.5686018  )
        21           B   tau(  21) = (  -0.1427698   0.8242355   0.5686018  )
        22           B   tau(  22) = (   0.4282797   0.0824299   0.5686018  )
        23           B   tau(  23) = (   0.3569027   0.2060579   0.5686018  )
        24           B   tau(  24) = (   0.2855263   0.3296861   0.5686018  )
        25           C2  tau(  25) = (   0.2141385   0.4533331   0.5686018  )
        26           B   tau(  26) = (   0.1427557   0.5769711   0.5686018  )
        27           B   tau(  27) = (   0.0713817   0.7005944   0.5686018  )
        28           B   tau(  28) = (  -0.0000005   0.8242327   0.5686018  )
        29           B   tau(  29) = (   0.5710548   0.0824299   0.5686018  )
        30           B   tau(  30) = (   0.4996677   0.2060636   0.5686018  )
        31           B   tau(  31) = (   0.4282907   0.3296923   0.5686018  )
        32           B   tau(  32) = (   0.3569138   0.4533330   0.5686018  )
        33           B   tau(  33) = (   0.2855266   0.5769736   0.5686018  )
        34           B   tau(  34) = (   0.2141437   0.7006019   0.5686018  )
        35           B   tau(  35) = (   0.1427698   0.8242355   0.5686018  )
        36           B   tau(  36) = (   0.7138140   0.0824268   0.5686018  )
        37           B   tau(  37) = (   0.6424318   0.2060579   0.5686018  )
        38           B   tau(  38) = (   0.5710448   0.3296923   0.5686018  )
        39           B   tau(  39) = (   0.4996672   0.4533333   0.5686018  )
        40           B   tau(  40) = (   0.4282907   0.5769676   0.5686018  )
        41           B   tau(  41) = (   0.3569036   0.7005986   0.5686018  )
        42           B   tau(  42) = (   0.2855207   0.8242373   0.5686018  )
        43           B   tau(  43) = (   0.8565645   0.0824283   0.5686018  )
        44           B   tau(  44) = (   0.7851905   0.2060546   0.5686018  )
        45           B   tau(  45) = (   0.7138082   0.3296861   0.5686018  )
        46           B   tau(  46) = (   0.6424207   0.4533330   0.5686018  )
        47           B   tau(  47) = (   0.5710438   0.5769676   0.5686018  )
        48           B   tau(  48) = (   0.4996672   0.7005925   0.5686018  )
        49           B   tau(  49) = (   0.4282799   0.8242336   0.5686018  )
        50           N   tau(  50) = (   0.0713853   0.0412143   0.5686018  )
        51           N   tau(  51) = (   0.0000000   0.1648537   0.5686018  )
        52           N   tau(  52) = (  -0.0713781   0.2884819   0.5686018  )
        53           N   tau(  53) = (  -0.1427563   0.4121169   0.5686018  )
        54           N   tau(  54) = (  -0.2141417   0.5357601   0.5686018  )
        55           N   tau(  55) = (  -0.2855237   0.6593929   0.5686018  )
        56           N   tau(  56) = (  -0.3568998   0.7830222   0.5686018  )
        57           N   tau(  57) = (   0.2141455   0.0412121   0.5686018  )
        58           N   tau(  58) = (   0.1427635   0.1648494   0.5686018  )
        59           N   tau(  59) = (   0.0713781   0.2884819   0.5686018  )
        60           N   tau(  60) = (   0.0000000   0.4121169   0.5686018  )
        61           N   tau(  61) = (  -0.0713787   0.5357561   0.5686018  )
        62           N   tau(  62) = (  -0.1427636   0.6593906   0.5686018  )
        63           N   tau(  63) = (  -0.2141456   0.7830234   0.5686018  )
        64           N   tau(  64) = (   0.3568998   0.0412132   0.5686018  )
        65           N   tau(  65) = (   0.2855237   0.1648472   0.5686018  )
        66           N   tau(  66) = (   0.2141416   0.2884777   0.5686018  )
        67           C1  tau(  67) = (   0.1427563   0.4121169   0.5686018  )
        68           N   tau(  68) = (   0.0713777   0.5357561   0.5686018  )
        69           N   tau(  69) = (  -0.0000005   0.6593868   0.5686018  )
        70           N   tau(  70) = (  -0.0713854   0.7830212   0.5686018  )
        71           N   tau(  71) = (   0.4996677   0.0412149   0.5686018  )
        72           N   tau(  72) = (   0.4282857   0.1648522   0.5686018  )
        73           N   tau(  73) = (   0.3569096   0.2884793   0.5686018  )
        74           N   tau(  74) = (   0.2855275   0.4121166   0.5686018  )
        75           C3  tau(  75) = (   0.2141417   0.5357601   0.5686018  )
        76           N   tau(  76) = (   0.1427636   0.6593906   0.5686018  )
        77           N   tau(  77) = (   0.0713854   0.7830212   0.5686018  )
        78           N   tau(  78) = (   0.6424346   0.0412132   0.5686018  )
        79           N   tau(  79) = (   0.5710498   0.1648522   0.5686018  )
        80           N   tau(  80) = (   0.4996677   0.2884827   0.5686018  )
        81           N   tau(  81) = (   0.4282916   0.4121166   0.5686018  )
        82           N   tau(  82) = (   0.3569090   0.5357581   0.5686018  )
        83           N   tau(  83) = (   0.2855237   0.6593929   0.5686018  )
        84           N   tau(  84) = (   0.2141456   0.7830234   0.5686018  )
        85           N   tau(  85) = (   0.7851890   0.0412121   0.5686018  )
        86           N   tau(  86) = (   0.7138108   0.1648472   0.5686018  )
        87           N   tau(  87) = (   0.6424259   0.2884793   0.5686018  )
        88           N   tau(  88) = (   0.5710439   0.4121166   0.5686018  )
        89           N   tau(  89) = (   0.4996672   0.5357547   0.5686018  )
        90           N   tau(  90) = (   0.4282852   0.6593876   0.5686018  )
        91           N   tau(  91) = (   0.3568998   0.7830222   0.5686018  )
        92           N   tau(  92) = (   0.9279491   0.0412143   0.5686018  )
        93           N   tau(  93) = (   0.8565710   0.1648494   0.5686018  )
        94           N   tau(  94) = (   0.7851929   0.2884777   0.5686018  )
        95           N   tau(  95) = (   0.7138080   0.4121166   0.5686018  )
        96           N   tau(  96) = (   0.6424255   0.5357581   0.5686018  )
        97           N   tau(  97) = (   0.5710493   0.6593876   0.5686018  )
        98           N   tau(  98) = (   0.4996672   0.7830203   0.5686018  )

     number of k points=     1
                       cart. coord. in units 2pi/alat
        k(    1) = (   0.0000000   0.0000000   0.0000000), wk =   1.0000000

     Dense  grid:   616895 G-vectors     FFT dimensions: ( 135, 135, 160)

     Occupations read from input 

      Spin-up

        1.0000   1.0000   1.0000   1.0000   1.0000   1.0000   1.0000   1.0000
        1.0000   1.0000   1.0000   1.0000   1.0000   1.0000   1.0000   1.0000
        1.0000   1.0000   1.0000   1.0000   1.0000   1.0000   1.0000   1.0000
        1.0000   1.0000   1.0000   1.0000   1.0000   1.0000   1.0000   1.0000
        1.0000   1.0000   1.0000   1.0000   1.0000   1.0000   1.0000   1.0000
        1.0000   1.0000   1.0000   1.0000   1.0000   1.0000   1.0000   1.0000
        1.0000   1.0000   1.0000   1.0000   1.0000   1.0000   1.0000   1.0000
        1.0000   1.0000   1.0000   1.0000   1.0000   1.0000   1.0000   1.0000
        1.0000   1.0000   1.0000   1.0000   1.0000   1.0000   1.0000   1.0000
        1.0000   1.0000   1.0000   1.0000   1.0000   1.0000   1.0000   1.0000
        1.0000   1.0000   1.0000   1.0000   1.0000   1.0000   1.0000   1.0000
        1.0000   1.0000   1.0000   1.0000   1.0000   1.0000   1.0000   1.0000
        1.0000   1.0000   1.0000   1.0000   1.0000   1.0000   1.0000   1.0000
        1.0000   1.0000   1.0000   1.0000   1.0000   1.0000   1.0000   1.0000
        1.0000   1.0000   1.0000   1.0000   1.0000   1.0000   1.0000   1.0000
        1.0000   1.0000   1.0000   1.0000   1.0000   1.0000   1.0000   1.0000
        1.0000   1.0000   1.0000   1.0000   1.0000   1.0000   1.0000   1.0000
        1.0000   1.0000   1.0000   1.0000   1.0000   1.0000   1.0000   1.0000
        1.0000   1.0000   1.0000   1.0000   1.0000   1.0000   1.0000   1.0000
        1.0000   1.0000   1.0000   1.0000   1.0000   1.0000   1.0000   1.0000
        1.0000   1.0000   1.0000   1.0000   1.0000   1.0000   1.0000   1.0000
        1.0000   1.0000   1.0000   1.0000   1.0000   1.0000   1.0000   1.0000
        1.0000   1.0000   1.0000   1.0000   1.0000   1.0000   1.0000   1.0000
        1.0000   1.0000   1.0000   1.0000   1.0000   1.0000   1.0000   1.0000
        1.0000   1.0000   1.0000   0.0000   1.0000   0.0000   0.0000   0.0000
        0.0000   0.0000   0.0000   0.0000   0.0000   0.0000   0.0000   0.0000
        0.0000   0.0000   0.0000   0.0000   0.0000   0.0000   0.0000   0.0000
        0.0000   0.0000   0.0000   0.0000   0.0000   0.0000   0.0000   0.0000
        0.0000   0.0000   0.0000   0.0000   0.0000   0.0000   0.0000   0.0000
        0.0000   0.0000   0.0000   0.0000   0.0000   0.0000   0.0000   0.0000
        0.0000   0.0000   0.0000   0.0000   0.0000

      Spin-down

        1.0000   1.0000   1.0000   1.0000   1.0000   1.0000   1.0000   1.0000
        1.0000   1.0000   1.0000   1.0000   1.0000   1.0000   1.0000   1.0000
        1.0000   1.0000   1.0000   1.0000   1.0000   1.0000   1.0000   1.0000
        1.0000   1.0000   1.0000   1.0000   1.0000   1.0000   1.0000   1.0000
        1.0000   1.0000   1.0000   1.0000   1.0000   1.0000   1.0000   1.0000
        1.0000   1.0000   1.0000   1.0000   1.0000   1.0000   1.0000   1.0000
        1.0000   1.0000   1.0000   1.0000   1.0000   1.0000   1.0000   1.0000
        1.0000   1.0000   1.0000   1.0000   1.0000   1.0000   1.0000   1.0000
        1.0000   1.0000   1.0000   1.0000   1.0000   1.0000   1.0000   1.0000
        1.0000   1.0000   1.0000   1.0000   1.0000   1.0000   1.0000   1.0000
        1.0000   1.0000   1.0000   1.0000   1.0000   1.0000   1.0000   1.0000
        1.0000   1.0000   1.0000   1.0000   1.0000   1.0000   1.0000   1.0000
        1.0000   1.0000   1.0000   1.0000   1.0000   1.0000   1.0000   1.0000
        1.0000   1.0000   1.0000   1.0000   1.0000   1.0000   1.0000   1.0000
        1.0000   1.0000   1.0000   1.0000   1.0000   1.0000   1.0000   1.0000
        1.0000   1.0000   1.0000   1.0000   1.0000   1.0000   1.0000   1.0000
        1.0000   1.0000   1.0000   1.0000   1.0000   1.0000   1.0000   1.0000
        1.0000   1.0000   1.0000   1.0000   1.0000   1.0000   1.0000   1.0000
        1.0000   1.0000   1.0000   1.0000   1.0000   1.0000   1.0000   1.0000
        1.0000   1.0000   1.0000   1.0000   1.0000   1.0000   1.0000   1.0000
        1.0000   1.0000   1.0000   1.0000   1.0000   1.0000   1.0000   1.0000
        1.0000   1.0000   1.0000   1.0000   1.0000   1.0000   1.0000   1.0000
        1.0000   1.0000   1.0000   1.0000   1.0000   1.0000   1.0000   1.0000
        1.0000   1.0000   1.0000   1.0000   1.0000   1.0000   1.0000   1.0000
        1.0000   1.0000   0.0000   1.0000   0.0000   0.0000   0.0000   0.0000
        0.0000   0.0000   0.0000   0.0000   0.0000   0.0000   0.0000   0.0000
        0.0000   0.0000   0.0000   0.0000   0.0000   0.0000   0.0000   0.0000
        0.0000   0.0000   0.0000   0.0000   0.0000   0.0000   0.0000   0.0000
        0.0000   0.0000   0.0000   0.0000   0.0000   0.0000   0.0000   0.0000
        0.0000   0.0000   0.0000   0.0000   0.0000   0.0000   0.0000   0.0000
        0.0000   0.0000   0.0000   0.0000   0.0000

     Estimated max dynamical RAM per process >     122.14 MB

     Estimated total dynamical RAM >       7.63 GB
     Generating pointlists ...
     new r_m :   0.0340 (alat units)  1.1299 (a.u.) for type    1
     new r_m :   0.0340 (alat units)  1.1299 (a.u.) for type    2
     new r_m :   0.0340 (alat units)  1.1300 (a.u.) for type    3
     new r_m :   0.0340 (alat units)  1.1300 (a.u.) for type    4
     new r_m :   0.0340 (alat units)  1.1300 (a.u.) for type    5

     Check: negative core charge=   -0.000006

     Initial potential from superposition of free atoms

     starting charge  390.98597, renormalised to  391.00000

     negative rho (up, down):  5.431E-02 5.945E-02
     Starting wfcs are  392 randomized atomic wfcs
     Checking if some PAW data can be deallocated... 

     total cpu time spent up to now is        7.1 secs

     Self-consistent Calculation

     iteration #  1     ecut=    40.00 Ry     beta= 0.70
     CG style diagonalization
     ethr =  1.00E-02,  avg # of iterations =  3.1

     negative rho (up, down):  3.269E-01 7.688E-03

     total cpu time spent up to now is       42.7 secs

     total energy              =   -1933.10888823 Ry
     Harris-Foulkes estimate   =   -1946.16705188 Ry
     estimated scf accuracy    <      19.91270892 Ry

     total magnetization       =     1.00 Bohr mag/cell
     absolute magnetization    =     1.67 Bohr mag/cell

     iteration #  2     ecut=    40.00 Ry     beta= 0.70
     CG style diagonalization
     ethr =  5.09E-03,  avg # of iterations =  4.1

     negative rho (up, down):  3.626E-01 6.734E-03

     total cpu time spent up to now is       77.8 secs

     total energy              =   -1936.84735983 Ry
     Harris-Foulkes estimate   =   -1943.75090280 Ry
     estimated scf accuracy    <      13.45362802 Ry

     total magnetization       =     1.00 Bohr mag/cell
     absolute magnetization    =     1.28 Bohr mag/cell

     iteration #  3     ecut=    40.00 Ry     beta= 0.70
     CG style diagonalization
     ethr =  3.44E-03,  avg # of iterations =  3.8

     negative rho (up, down):  3.916E-01 1.008E-02

     total cpu time spent up to now is      110.4 secs

     total energy              =   -1939.10102756 Ry
     Harris-Foulkes estimate   =   -1940.72495048 Ry
     estimated scf accuracy    <       3.74799864 Ry

     total magnetization       =     1.00 Bohr mag/cell
     absolute magnetization    =     2.53 Bohr mag/cell

     iteration #  4     ecut=    40.00 Ry     beta= 0.70
     CG style diagonalization
     ethr =  9.59E-04,  avg # of iterations =  3.5

     negative rho (up, down):  4.514E-01 1.007E-02

     total cpu time spent up to now is      139.9 secs

     total energy              =   -1939.96348089 Ry
     Harris-Foulkes estimate   =   -1940.27495705 Ry
     estimated scf accuracy    <       0.99767288 Ry

     total magnetization       =     1.00 Bohr mag/cell
     absolute magnetization    =     1.86 Bohr mag/cell

     iteration #  5     ecut=    40.00 Ry     beta= 0.70
     CG style diagonalization
     ethr =  2.55E-04,  avg # of iterations =  3.4

     negative rho (up, down):  4.157E-01 4.170E-02

     total cpu time spent up to now is      168.2 secs

     total energy              =   -1940.07766924 Ry
     Harris-Foulkes estimate   =   -1940.16505740 Ry
     estimated scf accuracy    <       0.35671227 Ry

     total magnetization       =     1.00 Bohr mag/cell
     absolute magnetization    =     2.32 Bohr mag/cell

     iteration #  6     ecut=    40.00 Ry     beta= 0.70
     CG style diagonalization
     ethr =  9.12E-05,  avg # of iterations =  3.3

     negative rho (up, down):  4.340E-01 3.154E-02

     total cpu time spent up to now is      195.1 secs

     total energy              =   -1940.11498323 Ry
     Harris-Foulkes estimate   =   -1940.13498450 Ry
     estimated scf accuracy    <       0.07136711 Ry

     total magnetization       =     1.00 Bohr mag/cell
     absolute magnetization    =     1.84 Bohr mag/cell

     iteration #  7     ecut=    40.00 Ry     beta= 0.70
     CG style diagonalization
     ethr =  1.83E-05,  avg # of iterations =  5.5

     negative rho (up, down):  4.650E-01 1.324E-02

     total cpu time spent up to now is      241.4 secs

     total energy              =   -1940.12993194 Ry
     Harris-Foulkes estimate   =   -1940.12987706 Ry
     estimated scf accuracy    <       0.01599207 Ry

     total magnetization       =     1.00 Bohr mag/cell
     absolute magnetization    =     1.82 Bohr mag/cell

     iteration #  8     ecut=    40.00 Ry     beta= 0.70
     CG style diagonalization
     c_bands:  3 eigenvalues not converged
     c_bands:  3 eigenvalues not converged
     ethr =  4.09E-06,  avg # of iterations =  4.2

     negative rho (up, down):  4.826E-01 6.277E-03

     total cpu time spent up to now is      278.2 secs

     total energy              =   -1940.13412979 Ry
     Harris-Foulkes estimate   =   -1940.13494977 Ry
     estimated scf accuracy    <       0.00871892 Ry

     total magnetization       =     1.00 Bohr mag/cell
     absolute magnetization    =     1.93 Bohr mag/cell

     iteration #  9     ecut=    40.00 Ry     beta= 0.70
     CG style diagonalization
     c_bands:  5 eigenvalues not converged
     c_bands:  1 eigenvalues not converged
     ethr =  2.23E-06,  avg # of iterations =  5.7

     negative rho (up, down):  4.880E-01 7.266E-03

     total cpu time spent up to now is      326.1 secs

     total energy              =   -1940.13617355 Ry
     Harris-Foulkes estimate   =   -1940.13682614 Ry
     estimated scf accuracy    <       0.00327886 Ry

     total magnetization       =     1.00 Bohr mag/cell
     absolute magnetization    =     1.95 Bohr mag/cell

     iteration # 10     ecut=    40.00 Ry     beta= 0.70
     CG style diagonalization
     c_bands:  3 eigenvalues not converged
     c_bands:  3 eigenvalues not converged
     ethr =  8.39E-07,  avg # of iterations =  3.8

     negative rho (up, down):  4.879E-01 7.462E-03

     total cpu time spent up to now is      358.4 secs

     total energy              =   -1940.13678498 Ry
     Harris-Foulkes estimate   =   -1940.13751124 Ry
     estimated scf accuracy    <       0.00286993 Ry

     total magnetization       =     1.00 Bohr mag/cell
     absolute magnetization    =     2.01 Bohr mag/cell

     iteration # 11     ecut=    40.00 Ry     beta= 0.70
     CG style diagonalization
     c_bands:  3 eigenvalues not converged
     c_bands:  1 eigenvalues not converged
     ethr =  7.34E-07,  avg # of iterations =  3.3

     negative rho (up, down):  4.856E-01 6.895E-03

     total cpu time spent up to now is      385.0 secs

     total energy              =   -1940.13717439 Ry
     Harris-Foulkes estimate   =   -1940.13721970 Ry
     estimated scf accuracy    <       0.00019429 Ry

     total magnetization       =     1.00 Bohr mag/cell
     absolute magnetization    =     2.02 Bohr mag/cell

     iteration # 12     ecut=    40.00 Ry     beta= 0.70
     CG style diagonalization
     ethr =  4.97E-08,  avg # of iterations =  3.7

     negative rho (up, down):  4.858E-01 7.021E-03

     total cpu time spent up to now is      416.4 secs

     total energy              =   -1940.13727581 Ry
     Harris-Foulkes estimate   =   -1940.13726579 Ry
     estimated scf accuracy    <       0.00008880 Ry

     total magnetization       =     1.00 Bohr mag/cell
     absolute magnetization    =     2.03 Bohr mag/cell

     iteration # 13     ecut=    40.00 Ry     beta= 0.70
     CG style diagonalization
     ethr =  2.27E-08,  avg # of iterations =  3.5

     negative rho (up, down):  4.853E-01 6.979E-03

     total cpu time spent up to now is      446.5 secs

     total energy              =   -1940.13729714 Ry
     Harris-Foulkes estimate   =   -1940.13730310 Ry
     estimated scf accuracy    <       0.00002463 Ry

     total magnetization       =     1.00 Bohr mag/cell
     absolute magnetization    =     2.04 Bohr mag/cell

     iteration # 14     ecut=    40.00 Ry     beta= 0.70
     CG style diagonalization
     ethr =  6.30E-09,  avg # of iterations =  3.3

     negative rho (up, down):  4.849E-01 6.991E-03

     total cpu time spent up to now is      473.9 secs

     total energy              =   -1940.13730265 Ry
     Harris-Foulkes estimate   =   -1940.13730199 Ry
     estimated scf accuracy    <       0.00000819 Ry

     total magnetization       =     1.00 Bohr mag/cell
     absolute magnetization    =     2.05 Bohr mag/cell

     iteration # 15     ecut=    40.00 Ry     beta= 0.70
     CG style diagonalization
     ethr =  2.09E-09,  avg # of iterations =  3.7

     negative rho (up, down):  4.848E-01 7.021E-03

     total cpu time spent up to now is      504.8 secs

     total energy              =   -1940.13730520 Ry
     Harris-Foulkes estimate   =   -1940.13730596 Ry
     estimated scf accuracy    <       0.00000500 Ry

     total magnetization       =     1.00 Bohr mag/cell
     absolute magnetization    =     2.05 Bohr mag/cell

     iteration # 16     ecut=    40.00 Ry     beta= 0.70
     CG style diagonalization
     ethr =  1.28E-09,  avg # of iterations =  3.4

     negative rho (up, down):  4.847E-01 7.024E-03

     total cpu time spent up to now is      533.0 secs

     total energy              =   -1940.13730656 Ry
     Harris-Foulkes estimate   =   -1940.13730709 Ry
     estimated scf accuracy    <       0.00000326 Ry

     total magnetization       =     1.00 Bohr mag/cell
     absolute magnetization    =     2.05 Bohr mag/cell

     iteration # 17     ecut=    40.00 Ry     beta= 0.70
     CG style diagonalization
     ethr =  8.34E-10,  avg # of iterations =  3.2

     negative rho (up, down):  4.847E-01 7.046E-03
 
     Magnetic moment per site:
     atom:    1    charge:    0.8803    magn:   -0.0000    constr:    0.0000
     atom:    2    charge:    0.8816    magn:    0.0012    constr:    0.0000
     atom:    3    charge:    0.8805    magn:   -0.0005    constr:    0.0000
     atom:    4    charge:    0.8797    magn:    0.0004    constr:    0.0000
     atom:    5    charge:    0.8805    magn:    0.0008    constr:    0.0000
     atom:    6    charge:    0.8813    magn:   -0.0001    constr:    0.0000
     atom:    7    charge:    0.8804    magn:    0.0013    constr:    0.0000
     atom:    8    charge:    0.8823    magn:    0.0007    constr:    0.0000
     atom:    9    charge:    0.8827    magn:    0.0013    constr:    0.0000
     atom:   10    charge:    0.8835    magn:    0.0015    constr:    0.0000
     atom:   11    charge:    0.8821    magn:   -0.0003    constr:    0.0000
     atom:   12    charge:    0.8816    magn:    0.0003    constr:    0.0000
     atom:   13    charge:    0.8819    magn:    0.0002    constr:    0.0000
     atom:   14    charge:    0.8813    magn:   -0.0001    constr:    0.0000
     atom:   15    charge:    0.8825    magn:    0.0011    constr:    0.0000
     atom:   16    charge:    0.8844    magn:    0.0039    constr:    0.0000
     atom:   17    charge:    0.9202    magn:    0.0117    constr:    0.0000
     atom:   18    charge:    0.9200    magn:    0.0011    constr:    0.0000
     atom:   19    charge:    0.8883    magn:    0.0041    constr:    0.0000
     atom:   20    charge:    0.8816    magn:    0.0003    constr:    0.0000
     atom:   21    charge:    0.8805    magn:    0.0008    constr:    0.0000
     atom:   22    charge:    0.8804    magn:    0.0001    constr:    0.0000
     atom:   23    charge:    0.8817    magn:   -0.0006    constr:    0.0000
     atom:   24    charge:    0.8834    magn:    0.0074    constr:    0.0000
     atom:   25    charge:    1.7280    magn:    0.2319    constr:    0.0000
     atom:   26    charge:    0.9201    magn:    0.0011    constr:    0.0000
     atom:   27    charge:    0.8821    magn:   -0.0003    constr:    0.0000
     atom:   28    charge:    0.8797    magn:    0.0004    constr:    0.0000
     atom:   29    charge:    0.8807    magn:    0.0006    constr:    0.0000
     atom:   30    charge:    0.8815    magn:    0.0008    constr:    0.0000
     atom:   31    charge:    0.8821    magn:    0.0042    constr:    0.0000
     atom:   32    charge:    0.8834    magn:    0.0074    constr:    0.0000
     atom:   33    charge:    0.9202    magn:    0.0118    constr:    0.0000
     atom:   34    charge:    0.8836    magn:    0.0015    constr:    0.0000
     atom:   35    charge:    0.8805    magn:   -0.0005    constr:    0.0000
     atom:   36    charge:    0.8823    magn:   -0.0004    constr:    0.0000
     atom:   37    charge:    0.8818    magn:    0.0004    constr:    0.0000
     atom:   38    charge:    0.8815    magn:    0.0008    constr:    0.0000
     atom:   39    charge:    0.8817    magn:   -0.0006    constr:    0.0000
     atom:   40    charge:    0.8844    magn:    0.0039    constr:    0.0000
     atom:   41    charge:    0.8827    magn:    0.0013    constr:    0.0000
     atom:   42    charge:    0.8816    magn:    0.0012    constr:    0.0000
     atom:   43    charge:    0.8823    magn:    0.0011    constr:    0.0000
     atom:   44    charge:    0.8823    magn:   -0.0004    constr:    0.0000
     atom:   45    charge:    0.8807    magn:    0.0006    constr:    0.0000
     atom:   46    charge:    0.8804    magn:    0.0001    constr:    0.0000
     atom:   47    charge:    0.8825    magn:    0.0011    constr:    0.0000
     atom:   48    charge:    0.8823    magn:    0.0007    constr:    0.0000
     atom:   49    charge:    0.8803    magn:   -0.0000    constr:    0.0000
     atom:   50    charge:    2.8681    magn:    0.0001    constr:    0.0000
     atom:   51    charge:    2.8715    magn:   -0.0003    constr:    0.0000
     atom:   52    charge:    2.8714    magn:    0.0022    constr:    0.0000
     atom:   53    charge:    2.8678    magn:    0.0052    constr:    0.0000
     atom:   54    charge:    2.8684    magn:   -0.0006    constr:    0.0000
     atom:   55    charge:    2.8730    magn:    0.0006    constr:    0.0000
     atom:   56    charge:    2.8714    magn:    0.0006    constr:    0.0000
     atom:   57    charge:    2.8693    magn:    0.0016    constr:    0.0000
     atom:   58    charge:    2.8679    magn:    0.0036    constr:    0.0000
     atom:   59    charge:    2.8668    magn:    0.0224    constr:    0.0000
     atom:   60    charge:    2.8671    magn:   -0.0210    constr:    0.0000
     atom:   61    charge:    2.8677    magn:    0.0131    constr:    0.0000
     atom:   62    charge:    2.8709    magn:    0.0096    constr:    0.0000
     atom:   63    charge:    2.8730    magn:    0.0006    constr:    0.0000
     atom:   64    charge:    2.8674    magn:    0.0001    constr:    0.0000
     atom:   65    charge:    2.8696    magn:    0.0052    constr:    0.0000
     atom:   66    charge:    2.8644    magn:   -0.0140    constr:    0.0000
     atom:   67    charge:    1.8053    magn:   -0.0748    constr:    0.0000
     atom:   68    charge:    2.8581    magn:    0.1087    constr:    0.0000
     atom:   69    charge:    2.8677    magn:    0.0132    constr:    0.0000
     atom:   70    charge:    2.8684    magn:   -0.0006    constr:    0.0000
     atom:   71    charge:    2.8683    magn:    0.0006    constr:    0.0000
     atom:   72    charge:    2.8694    magn:   -0.0005    constr:    0.0000
     atom:   73    charge:    2.8674    magn:    0.0073    constr:    0.0000
     atom:   74    charge:    2.8281    magn:    0.0869    constr:    0.0000
     atom:   75    charge:    1.8055    magn:   -0.0745    constr:    0.0000
     atom:   76    charge:    2.8672    magn:   -0.0209    constr:    0.0000
     atom:   77    charge:    2.8679    magn:    0.0052    constr:    0.0000
     atom:   78    charge:    2.8674    magn:   -0.0003    constr:    0.0000
     atom:   79    charge:    2.8694    magn:   -0.0001    constr:    0.0000
     atom:   80    charge:    2.8747    magn:    0.0047    constr:    0.0000
     atom:   81    charge:    2.8675    magn:    0.0074    constr:    0.0000
     atom:   82    charge:    2.8644    magn:   -0.0141    constr:    0.0000
     atom:   83    charge:    2.8669    magn:    0.0223    constr:    0.0000
     atom:   84    charge:    2.8714    magn:    0.0023    constr:    0.0000
     atom:   85    charge:    2.8688    magn:    0.0003    constr:    0.0000
     atom:   86    charge:    2.8700    magn:    0.0007    constr:    0.0000
     atom:   87    charge:    2.8694    magn:   -0.0002    constr:    0.0000
     atom:   88    charge:    2.8694    magn:   -0.0005    constr:    0.0000
     atom:   89    charge:    2.8696    magn:    0.0052    constr:    0.0000
     atom:   90    charge:    2.8679    magn:    0.0037    constr:    0.0000
     atom:   91    charge:    2.8714    magn:   -0.0004    constr:    0.0000
     atom:   92    charge:    2.8682    magn:    0.0009    constr:    0.0000
     atom:   93    charge:    2.8687    magn:    0.0003    constr:    0.0000
     atom:   94    charge:    2.8674    magn:   -0.0003    constr:    0.0000
     atom:   95    charge:    2.8683    magn:    0.0006    constr:    0.0000
     atom:   96    charge:    2.8674    magn:    0.0001    constr:    0.0000
     atom:   97    charge:    2.8693    magn:    0.0016    constr:    0.0000
     atom:   98    charge:    2.8681    magn:    0.0001    constr:    0.0000

     total cpu time spent up to now is      559.4 secs

     End of self-consistent calculation

 ------ SPIN UP ------------


          k = 0.0000 0.0000 0.0000 ( 77079 PWs)   bands (ev):

   -21.7758 -21.5459 -21.3916 -21.3895 -21.3769 -21.3026 -21.2719 -20.8329
   -20.6537 -20.6509 -20.6165 -20.5504 -20.5459 -20.4048 -20.3072 -20.2869
   -20.2850 -20.1318 -20.1063 -19.5707 -19.4145 -19.4058 -19.3872 -19.3811
   -19.3720 -19.3643 -19.3466 -19.3457 -19.2916 -19.1899 -19.1702 -19.0326
   -18.9794 -18.9760 -18.9532 -18.7695 -18.7607 -18.5479 -18.5300 -18.5214
   -18.5115 -18.4555 -18.4051 -18.4000 -18.3659 -18.3387 -18.3297 -16.8075
   -14.9010 -13.1349 -12.7731 -12.7652 -12.7466 -12.7158 -12.7142 -12.6409
   -12.5664 -12.5411 -12.5202 -12.4838 -12.4158 -12.1413 -12.0763 -12.0637
   -12.0301 -11.9796 -11.9643 -11.5371 -11.4023 -11.3877 -11.3814 -11.3763
   -11.3667 -11.3662 -11.3421 -11.3095 -11.2992 -11.0823 -11.0615 -10.8349
   -10.7165 -10.7055 -10.6801 -10.6545 -10.5384 -10.0386 -10.0060  -9.9988
    -9.9279  -9.8741  -9.8212  -9.3813  -9.3348  -9.2954  -9.2912  -9.2815
    -9.2693  -9.1988  -9.0031  -8.9180  -8.9031  -8.8918  -8.8878  -8.8710
    -8.8620  -8.8580  -8.8560  -8.8461  -8.8337  -8.8262  -8.8254  -8.8196
    -8.8155  -8.8060  -8.7811  -8.7498  -8.7401  -8.7206  -8.6734  -8.6517
    -8.5252  -8.5147  -8.1940  -8.1591  -8.1542  -8.0905  -8.0535  -7.9438
    -7.8559  -7.8363  -7.8240  -7.7880  -7.7390  -7.7253  -7.5301  -7.5010
    -7.4806  -7.4649  -7.4538  -7.4442  -7.4434  -7.4012  -7.3849  -7.3609
    -7.3343  -7.3338  -7.3305  -7.2442  -7.2305  -7.2134  -7.1885  -7.0568
    -7.0022  -6.9746  -6.8864  -6.8092  -6.6788  -6.5950  -6.2534  -6.1797
    -6.1763  -6.1532  -6.0804  -6.0736  -6.0586  -6.0532  -6.0465  -6.0429
    -6.0313  -6.0287  -6.0264  -5.9606  -5.8980  -5.8105  -5.8039  -5.7427
    -5.5194  -5.4583  -5.4495  -5.4400  -5.3044  -5.2475  -5.1119  -5.0999
    -4.7922  -4.7858  -4.7583  -4.7491  -4.6606  -4.6590  -4.5573  -4.5148
    -4.5144  -4.4934  -4.3777  -3.2142  -0.1129   0.1815   0.7027   0.7098
     0.7125   0.7441   0.7502   0.7559   0.7920   0.7992   0.8066   0.8126
     0.8189   0.8321   0.8604   0.8742   0.8745   0.9079   0.9169   0.9461
     1.0034   1.1463   1.2302   1.2353   1.2585   1.3134   1.3207   1.3254
     1.3308   1.3409   1.3481   1.3761   1.3933   1.4356   1.4376   1.4406
     1.4472   1.4579   1.4813   1.8821   2.0806   2.1034   2.1069   2.1199
     2.1201   2.1396   2.1494   2.2106   2.3055

 ------ SPIN DOWN ----------


          k = 0.0000 0.0000 0.0000 ( 77079 PWs)   bands (ev):

   -21.7519 -21.4747 -21.3867 -21.3865 -21.3683 -21.2954 -21.2166 -20.7671
   -20.6438 -20.6350 -20.6164 -20.5452 -20.5253 -20.3812 -20.2963 -20.2853
   -20.2596 -20.1075 -20.0874 -19.5201 -19.4074 -19.3989 -19.3809 -19.3759
   -19.3681 -19.3611 -19.3341 -19.3084 -19.3013 -19.1711 -19.1596 -19.0208
   -18.9746 -18.9712 -18.9352 -18.7706 -18.7450 -18.5401 -18.5220 -18.5069
   -18.5036 -18.4500 -18.3956 -18.3919 -18.3648 -18.3267 -18.3231 -16.6811
   -15.0192 -13.0490 -12.7677 -12.7570 -12.7432 -12.7119 -12.7116 -12.6309
   -12.5611 -12.5355 -12.5154 -12.4743 -12.4040 -12.1292 -12.0675 -12.0565
   -12.0282 -11.9751 -11.9525 -11.5114 -11.3957 -11.3786 -11.3727 -11.3679
   -11.3623 -11.3506 -11.3364 -11.3003 -11.2897 -11.0876 -11.0486 -10.8151
   -10.7117 -10.7033 -10.6714 -10.6450 -10.5308 -10.0277  -9.9930  -9.9886
    -9.9184  -9.8684  -9.8153  -9.3680  -9.3050  -9.2882  -9.2854  -9.2705
    -9.2634  -9.1978  -8.9835  -8.8890  -8.8839  -8.8742  -8.8659  -8.8547
    -8.8539  -8.8435  -8.8434  -8.8423  -8.8286  -8.8185  -8.8170  -8.8141
    -8.7946  -8.7935  -8.7774  -8.7392  -8.7334  -8.6673  -8.6407  -8.6133
    -8.5222  -8.5149  -8.1909  -8.1574  -8.1512  -8.0763  -8.0415  -7.8565
    -7.8253  -7.8083  -7.7887  -7.7850  -7.7149  -7.6883  -7.5199  -7.4916
    -7.4680  -7.4633  -7.4517  -7.4428  -7.3904  -7.3793  -7.3502  -7.3280
    -7.3279  -7.3248  -7.2889  -7.2268  -7.2059  -7.1940  -7.1722  -7.0488
    -6.9995  -6.9702  -6.8761  -6.8003  -6.6824  -6.6075  -6.1755  -6.1688
    -6.1484  -6.0779  -6.0631  -6.0583  -6.0428  -6.0354  -6.0300  -6.0245
    -6.0227  -5.9998  -5.9737  -5.9600  -5.8473  -5.8079  -5.8039  -5.7519
    -5.4679  -5.4426  -5.4291  -5.4092  -5.2684  -5.2532  -5.1211  -5.1004
    -4.7641  -4.7468  -4.7307  -4.7278  -4.6477  -4.6378  -4.5305  -4.5098
    -4.4918  -4.4774  -4.1721  -3.4991   0.1873   0.5157   0.7104   0.7283
     0.7353   0.7561   0.7724   0.7727   0.7922   0.8081   0.8133   0.8213
     0.8354   0.8381   0.8679   0.8903   0.8950   0.9339   0.9439   0.9513
     1.0537   1.1984   1.2456   1.2581   1.2736   1.3209   1.3254   1.3315
     1.3448   1.3574   1.3576   1.3838   1.4092   1.4350   1.4369   1.4402
     1.4479   1.4585   1.4874   1.8866   2.1086   2.1112   2.1228   2.1306
     2.1494   2.1604   2.2130   2.2131   2.3252

     highest occupied, lowest unoccupied level (ev):    -4.3777   -4.1721

!    total energy              =   -1940.13730707 Ry
     Harris-Foulkes estimate   =   -1940.13730738 Ry
     estimated scf accuracy    <       0.00000055 Ry

     total all-electron energy =     -7769.961784 Ry

     The total energy is the sum of the following terms:

     one-electron contribution =  -10680.38691584 Ry
     hartree contribution      =    5426.09931599 Ry
     xc contribution           =    -431.01404438 Ry
     ewald contribution        =    4388.62168141 Ry
     DFT-D3 Dispersion         =      -0.27079554 Ry
     one-center paw contrib.   =    -643.18654871 Ry

     total magnetization       =     1.00 Bohr mag/cell
     absolute magnetization    =     2.05 Bohr mag/cell

     convergence has been achieved in  17 iterations

     negative rho (up, down):  4.847E-01 7.046E-03

     Forces acting on atoms (cartesian axes, Ry/au):

     atom    1 type  1   force =    -0.00040516   -0.00150544    0.00000000
     atom    2 type  1   force =     0.00173878   -0.00289231    0.00000000
     atom    3 type  1   force =    -0.00154332    0.00132539    0.00000000
     atom    4 type  1   force =    -0.00272000   -0.00075392    0.00000000
     atom    5 type  1   force =     0.00146067   -0.00254082    0.00000000
     atom    6 type  1   force =    -0.00039307    0.00158532    0.00000000
     atom    7 type  1   force =    -0.00230997    0.00133646    0.00000000
     atom    8 type  1   force =    -0.00410652   -0.00204223    0.00000000
     atom    9 type  1   force =    -0.00485406    0.00035889    0.00000000
     atom   10 type  1   force =    -0.00044981    0.00302714    0.00000000
     atom   11 type  1   force =     0.00135460   -0.01008422    0.00000000
     atom   12 type  1   force =    -0.00360980   -0.00292508    0.00000000
     atom   13 type  1   force =    -0.00272558    0.00157523    0.00000000
     atom   14 type  1   force =    -0.00156775   -0.00044062    0.00000000
     atom   15 type  1   force =     0.00195058   -0.00158352    0.00000000
     atom   16 type  1   force =     0.00324491    0.01243278    0.00000000
     atom   17 type  1   force =    -0.00178885   -0.07000892    0.00000000
     atom   18 type  1   force =    -0.05877878    0.02281100    0.00000000
     atom   19 type  1   force =     0.00100121   -0.00059208    0.00000000
     atom   20 type  1   force =     0.00070990    0.00459039    0.00000000
     atom   21 type  1   force =     0.00291957    0.00001724    0.00000000
     atom   22 type  1   force =     0.00228508   -0.00357805    0.00000000
     atom   23 type  1   force =    -0.00083403   -0.00443924    0.00000000
     atom   24 type  1   force =    -0.01143066   -0.01457422    0.00000000
     atom   25 type  4   force =     0.03955498   -0.02275223    0.00000000
     atom   26 type  1   force =    -0.04914067    0.03945621    0.00000000
     atom   27 type  1   force =     0.00941254    0.00386300    0.00000000
     atom   28 type  1   force =    -0.00071611    0.00274472    0.00000000
     atom   29 type  1   force =    -0.00206691   -0.00305098    0.00000000
     atom   30 type  1   force =     0.00089167   -0.00435745    0.00000000
     atom   31 type  1   force =     0.00546091   -0.00316775    0.00000000
     atom   32 type  1   force =     0.00690570    0.01715490    0.00000000
     atom   33 type  1   force =     0.05970917    0.03655416    0.00000000
     atom   34 type  1   force =    -0.00284497   -0.00112376    0.00000000
     atom   35 type  1   force =    -0.00192628    0.00068152    0.00000000
     atom   36 type  1   force =    -0.00097638   -0.00191382    0.00000000
     atom   37 type  1   force =    -0.00119879    0.00069090    0.00000000
     atom   38 type  1   force =     0.00421933    0.00139109    0.00000000
     atom   39 type  1   force =     0.00342831    0.00293673    0.00000000
     atom   40 type  1   force =    -0.00914366   -0.00902085    0.00000000
     atom   41 type  1   force =    -0.00274043    0.00402735    0.00000000
     atom   42 type  1   force =     0.00338820   -0.00004784    0.00000000
     atom   43 type  1   force =     0.00404875   -0.00233296    0.00000000
     atom   44 type  1   force =     0.00117344    0.00181404    0.00000000
     atom   45 type  1   force =     0.00161981    0.00331080    0.00000000
     atom   46 type  1   force =     0.00425417   -0.00019135    0.00000000
     atom   47 type  1   force =     0.00235520   -0.00089791    0.00000000
     atom   48 type  1   force =    -0.00027660    0.00458770    0.00000000
     atom   49 type  1   force =     0.00110931    0.00111426    0.00000000
     atom   50 type  2   force =     0.00032013    0.00000181    0.00000000
     atom   51 type  2   force =    -0.00066863   -0.00235362    0.00000000
     atom   52 type  2   force =    -0.00046468    0.00085156    0.00000000
     atom   53 type  2   force =    -0.00099010    0.00154621    0.00000000
     atom   54 type  2   force =    -0.00018479    0.00008423    0.00000000
     atom   55 type  2   force =     0.00106137    0.00041786    0.00000000
     atom   56 type  2   force =     0.00023215   -0.00013851    0.00000000
     atom   57 type  2   force =     0.00013010   -0.00134961    0.00000000
     atom   58 type  2   force =    -0.00216064   -0.00295451    0.00000000
     atom   59 type  2   force =    -0.00491400   -0.01739313    0.00000000
     atom   60 type  2   force =    -0.01703962    0.00540251    0.00000000
     atom   61 type  2   force =    -0.00391650    0.00339325    0.00000000
     atom   62 type  2   force =     0.00117957   -0.00067075    0.00000000
     atom   63 type  2   force =     0.00017130   -0.00113111    0.00000000
     atom   64 type  2   force =     0.00069590    0.00013935    0.00000000
     atom   65 type  2   force =     0.00388127   -0.00248067    0.00000000
     atom   66 type  2   force =     0.01376720   -0.02729213    0.00000000
     atom   67 type  3   force =     0.08951398    0.03116893    0.00000000
     atom   68 type  2   force =    -0.04884289    0.02823633    0.00000000
     atom   69 type  2   force =    -0.00487870    0.00170554    0.00000000
     atom   70 type  2   force =    -0.00015251    0.00010623    0.00000000
     atom   71 type  2   force =    -0.00018111   -0.00028451    0.00000000
     atom   72 type  2   force =    -0.00017531    0.00205188    0.00000000
     atom   73 type  2   force =    -0.00265661    0.00917393    0.00000000
     atom   74 type  2   force =    -0.05291748    0.03057769    0.00000000
     atom   75 type  5   force =     0.01775661   -0.09315010    0.00000000
     atom   76 type  2   force =    -0.01318976    0.01206906    0.00000000
     atom   77 type  2   force =    -0.00182205    0.00007517    0.00000000
     atom   78 type  2   force =    -0.00120150    0.00031070    0.00000000
     atom   79 type  2   force =    -0.00119738    0.00066133    0.00000000
     atom   80 type  2   force =    -0.00425626    0.00246689    0.00000000
     atom   81 type  2   force =    -0.00927394   -0.00226278    0.00000000
     atom   82 type  2   force =     0.03051620    0.00172265    0.00000000
     atom   83 type  2   force =     0.01259028    0.01294253    0.00000000
     atom   84 type  2   force =    -0.00097578   -0.00003823    0.00000000
     atom   85 type  2   force =    -0.00030817   -0.00051126    0.00000000
     atom   86 type  2   force =    -0.00040445    0.00022963    0.00000000
     atom   87 type  2   force =    -0.00117738    0.00070808    0.00000000
     atom   88 type  2   force =    -0.00187969   -0.00086919    0.00000000
     atom   89 type  2   force =     0.00408426   -0.00212662    0.00000000
     atom   90 type  2   force =     0.00146953    0.00334355    0.00000000
     atom   91 type  2   force =     0.00169163    0.00174488    0.00000000
     atom   92 type  2   force =    -0.00002650    0.00000954    0.00000000
     atom   93 type  2   force =     0.00028584    0.00051285    0.00000000
     atom   94 type  2   force =    -0.00088260    0.00087955    0.00000000
     atom   95 type  2   force =     0.00014523    0.00030055    0.00000000
     atom   96 type  2   force =     0.00022001   -0.00067086    0.00000000
     atom   97 type  2   force =     0.00122165    0.00056117    0.00000000
     atom   98 type  2   force =     0.00015615   -0.00028751    0.00000000

     Total force =     0.223521     Total SCF correction =     0.001558


     Computing stress (Cartesian axis) and pressure


     negative rho (up, down):  4.847E-01 7.046E-03
          total   stress  (Ry/bohr**3)                   (kbar)     P=    1.97
   0.00002102   0.00000124   0.00000000          3.09      0.18      0.00
   0.00000124   0.00002244   0.00000000          0.18      3.30      0.00
   0.00000000   0.00000000  -0.00000337          0.00      0.00     -0.50


     BFGS Geometry Optimization

     number of scf cycles    =   1
     number of bfgs steps    =   0

     enthalpy new            =   -1940.1373070717 Ry

     new trust radius        =       0.0948274096 bohr
     new conv_thr            =       0.0000010000 Ry

     new unit-cell volume =  36143.81976 a.u.^3 (  5355.96143 Ang^3 )
     density =      0.36398 g/cm^3

CELL_PARAMETERS (alat= 33.23461096)
   0.999859515   0.000030879   0.000000000
  -0.499903015   0.865919044   0.000000000
   0.000000000   0.000000000   1.137203616

ATOMIC_POSITIONS (crystal)
B        0.047584854   0.095194106   0.500000000
B        0.047620950   0.237997987   0.500000000
B        0.047597547   0.380991702   0.500000000
B        0.047529243   0.523786412   0.500000000
B        0.047620786   0.666587017   0.500000000
B        0.047634599   0.809575448   0.500000000
B        0.047576904   0.952423242   0.500000000
B        0.190327629   0.095172386   0.500000000
B        0.190339756   0.238111022   0.500000000
B        0.190514886   0.381056859   0.500000000
B        0.190349995   0.523462402   0.500000000
B        0.190324972   0.666570811   0.500000000
B        0.190421125   0.809578959   0.500000000
B        0.190424806   0.952365806   0.500000000
B        0.333362689   0.095186639   0.500000000
B        0.333645313   0.238522043   0.500000000
B        0.332053783   0.378511618   0.500000000
B        0.331954248   0.524606072   0.500000000
B        0.333352853   0.666646415   0.500000000
B        0.333428664   0.809675086   0.500000000
B        0.333412851   0.952379624   0.500000000
B        0.476194134   0.095120876   0.500000000
B        0.476084912   0.237939258   0.500000000
B        0.475590012   0.380435554   0.500000000
C2       0.476982829   0.523021596   0.500000000
B        0.475393303   0.668044284   0.500000000
B        0.476537555   0.809649797   0.500000000
B        0.476213527   0.952471180   0.500000000
B        0.618942473   0.095139200   0.500000000
B        0.619001710   0.237948724   0.500000000
B        0.619159967   0.380839257   0.500000000
B        0.619563880   0.524408894   0.500000000
B        0.621487611   0.667946234   0.500000000
B        0.618943191   0.809485123   0.500000000
B        0.619008227   0.952402720   0.500000000
B        0.761847541   0.095175155   0.500000000
B        0.761882319   0.238117617   0.500000000
B        0.762051003   0.380997754   0.500000000
B        0.762060677   0.523914907   0.500000000
B        0.761478086   0.666354886   0.500000000
B        0.761888953   0.809660350   0.500000000
B        0.762002640   0.952379462   0.500000000
B        0.904837961   0.095162278   0.500000000
B        0.904825173   0.238152861   0.500000000
B        0.904861050   0.381057364   0.500000000
B        0.904879489   0.523805816   0.500000000
B        0.904813611   0.666637296   0.500000000
B        0.904828034   0.809672727   0.500000000
B        0.904806324   0.952415516   0.500000000
N        0.095253519   0.047621987   0.500000000
N        0.095180646   0.190401555   0.500000000
N        0.095241160   0.333361593   0.500000000
N        0.095239979   0.476242243   0.500000000
N        0.095238811   0.619057355   0.500000000
N        0.095279569   0.761922889   0.500000000
N        0.095246274   0.904753492   0.500000000
N        0.238078227   0.047572359   0.500000000
N        0.237981356   0.190375770   0.500000000
N        0.237641329   0.332727279   0.500000000
N        0.237675098   0.476376292   0.500000000
N        0.238039745   0.619167813   0.500000000
N        0.238118088   0.761882448   0.500000000
N        0.238077134   0.904720327   0.500000000
N        0.380971194   0.047625437   0.500000000
N        0.381025494   0.190389632   0.500000000
N        0.380887904   0.332378360   0.500000000
C1       0.384182590   0.477272138   0.500000000
N        0.379970389   0.620031534   0.500000000
N        0.380832915   0.761960616   0.500000000
N        0.380942829   0.904760782   0.500000000
N        0.523801375   0.047612658   0.500000000
N        0.523842194   0.190553072   0.500000000
N        0.523891290   0.333648019   0.500000000
N        0.522750021   0.477251322   0.500000000
C3       0.522726873   0.615815872   0.500000000
N        0.523624207   0.762325374   0.500000000
N        0.523757960   0.904759702   0.500000000
N        0.666641998   0.047631394   0.500000000
N        0.666646375   0.190504727   0.500000000
N        0.666581731   0.333418767   0.500000000
N        0.666352365   0.476109527   0.500000000
N        0.667621535   0.619112072   0.500000000
N        0.667272082   0.762358335   0.500000000
N        0.666637969   0.904758323   0.500000000
N        0.809503344   0.047601506   0.500000000
N        0.809515937   0.190483860   0.500000000
N        0.809495125   0.333353687   0.500000000
N        0.809446561   0.476157978   0.500000000
N        0.809610128   0.618974309   0.500000000
N        0.809623879   0.762018475   0.500000000
N        0.809597882   0.904818972   0.500000000
N        0.952377444   0.047622256   0.500000000
N        0.952398241   0.190496320   0.500000000
N        0.952368123   0.333357806   0.500000000
N        0.952387048   0.476198675   0.500000000
N        0.952374370   0.619028857   0.500000000
N        0.952427257   0.761921739   0.500000000
N        0.952377780   0.904746155   0.500000000



     Writing output data file C2Cn.save/
     NEW-OLD atomic charge density approx. for the potential
     NEW k-points:
   0.0000000   0.0000000   0.0000000   1.0000000
   0.0000000   0.0000000   0.0000000   1.0000000

     Check: negative core charge=   -0.000006

     negative rho (up, down):  4.844E-01 2.517E-03
     extrapolated charge  391.42438, renormalised to  391.00000

     total cpu time spent up to now is      578.9 secs

     Self-consistent Calculation

     iteration #  1     ecut=    40.00 Ry     beta= 0.70
     CG style diagonalization
     c_bands:  1 eigenvalues not converged
     c_bands:  1 eigenvalues not converged
     ethr =  1.00E-06,  avg # of iterations = 20.6

     negative rho (up, down):  2.765E-01 2.188E-01

     total cpu time spent up to now is      792.4 secs

     total energy              =   -1940.02627997 Ry
     Harris-Foulkes estimate   =   -1928.94900428 Ry
     estimated scf accuracy    <       0.16637052 Ry

     total magnetization       =     1.00 Bohr mag/cell
     absolute magnetization    =     2.60 Bohr mag/cell

     iteration #  2     ecut=    40.00 Ry     beta= 0.70
     CG style diagonalization
     c_bands:  1 eigenvalues not converged
     ethr =  4.26E-05,  avg # of iterations =  4.8

     negative rho (up, down):  3.010E-01 1.950E-01

     total cpu time spent up to now is      836.6 secs

     total energy              =   -1939.94666682 Ry
     Harris-Foulkes estimate   =   -1940.48923280 Ry
     estimated scf accuracy    <       2.23559755 Ry

     total magnetization       =     1.00 Bohr mag/cell
     absolute magnetization    =     2.37 Bohr mag/cell

     iteration #  3     ecut=    40.00 Ry     beta= 0.70
     CG style diagonalization
     ethr =  4.26E-05,  avg # of iterations =  4.2

     negative rho (up, down):  3.423E-01 1.527E-01

     total cpu time spent up to now is      873.9 secs

     total energy              =   -1940.14960361 Ry
     Harris-Foulkes estimate   =   -1940.17959094 Ry
     estimated scf accuracy    <       0.08825103 Ry

     total magnetization       =     1.00 Bohr mag/cell
     absolute magnetization    =     2.07 Bohr mag/cell

     iteration #  4     ecut=    40.00 Ry     beta= 0.70
     CG style diagonalization
     ethr =  2.26E-05,  avg # of iterations =  3.4

     negative rho (up, down):  3.716E-01 1.220E-01

     total cpu time spent up to now is      902.7 secs

     total energy              =   -1940.15570628 Ry
     Harris-Foulkes estimate   =   -1940.16047887 Ry
     estimated scf accuracy    <       0.01983685 Ry

     total magnetization       =     1.00 Bohr mag/cell
     absolute magnetization    =     2.02 Bohr mag/cell

     iteration #  5     ecut=    40.00 Ry     beta= 0.70
     CG style diagonalization
     c_bands:  1 eigenvalues not converged
     ethr =  5.07E-06,  avg # of iterations =  3.7

     negative rho (up, down):  3.984E-01 9.244E-02

     total cpu time spent up to now is      934.3 secs

     total energy              =   -1940.15597219 Ry
     Harris-Foulkes estimate   =   -1940.15908803 Ry
     estimated scf accuracy    <       0.01884412 Ry

     total magnetization       =     1.00 Bohr mag/cell
     absolute magnetization    =     2.07 Bohr mag/cell

     iteration #  6     ecut=    40.00 Ry     beta= 0.70
     CG style diagonalization
     c_bands:  1 eigenvalues not converged
     ethr =  4.82E-06,  avg # of iterations =  3.2

     negative rho (up, down):  4.222E-01 6.643E-02

     total cpu time spent up to now is      960.3 secs

     total energy              =   -1940.15612704 Ry
     Harris-Foulkes estimate   =   -1940.15747387 Ry
     estimated scf accuracy    <       0.00845955 Ry

     total magnetization       =     1.00 Bohr mag/cell
     absolute magnetization    =     2.05 Bohr mag/cell

     iteration #  7     ecut=    40.00 Ry     beta= 0.70
     CG style diagonalization
     ethr =  2.16E-06,  avg # of iterations =  3.3

     negative rho (up, down):  4.521E-01 3.462E-02

     total cpu time spent up to now is      987.7 secs

     total energy              =   -1940.15584511 Ry
     Harris-Foulkes estimate   =   -1940.15655342 Ry
     estimated scf accuracy    <       0.00335128 Ry

     total magnetization       =     1.00 Bohr mag/cell
     absolute magnetization    =     2.05 Bohr mag/cell

     iteration #  8     ecut=    40.00 Ry     beta= 0.70
     CG style diagonalization
     ethr =  8.57E-07,  avg # of iterations =  3.2

     negative rho (up, down):  4.775E-01 9.570E-03

     total cpu time spent up to now is     1014.4 secs

     total energy              =   -1940.15580193 Ry
     Harris-Foulkes estimate   =   -1940.15606940 Ry
     estimated scf accuracy    <       0.00099956 Ry

     total magnetization       =     1.00 Bohr mag/cell
     absolute magnetization    =     2.06 Bohr mag/cell

     iteration #  9     ecut=    40.00 Ry     beta= 0.70
     CG style diagonalization
     ethr =  2.56E-07,  avg # of iterations =  3.4

     negative rho (up, down):  4.786E-01 8.981E-03

     total cpu time spent up to now is     1042.3 secs

     total energy              =   -1940.15591845 Ry
     Harris-Foulkes estimate   =   -1940.15593608 Ry
     estimated scf accuracy    <       0.00009552 Ry

     total magnetization       =     1.00 Bohr mag/cell
     absolute magnetization    =     2.06 Bohr mag/cell

     iteration # 10     ecut=    40.00 Ry     beta= 0.70
     CG style diagonalization
     ethr =  2.44E-08,  avg # of iterations =  3.5

     negative rho (up, down):  4.809E-01 8.416E-03

     total cpu time spent up to now is     1071.5 secs

     total energy              =   -1940.15593239 Ry
     Harris-Foulkes estimate   =   -1940.15593770 Ry
     estimated scf accuracy    <       0.00002353 Ry

     total magnetization       =     1.00 Bohr mag/cell
     absolute magnetization    =     2.06 Bohr mag/cell

     iteration # 11     ecut=    40.00 Ry     beta= 0.70
     CG style diagonalization
     ethr =  6.02E-09,  avg # of iterations =  3.5

     negative rho (up, down):  4.809E-01 8.413E-03

     total cpu time spent up to now is     1100.6 secs

     total energy              =   -1940.15593824 Ry
     Harris-Foulkes estimate   =   -1940.15593809 Ry
     estimated scf accuracy    <       0.00000165 Ry

     total magnetization       =     1.00 Bohr mag/cell
     absolute magnetization    =     2.06 Bohr mag/cell

     iteration # 12     ecut=    40.00 Ry     beta= 0.70
     CG style diagonalization
     ethr =  4.22E-10,  avg # of iterations =  3.9

     negative rho (up, down):  4.810E-01 8.422E-03
 
     Magnetic moment per site:
     atom:    1    charge:    0.8808    magn:    0.0000    constr:    0.0000
     atom:    2    charge:    0.8815    magn:    0.0013    constr:    0.0000
     atom:    3    charge:    0.8805    magn:   -0.0002    constr:    0.0000
     atom:    4    charge:    0.8800    magn:    0.0004    constr:    0.0000
     atom:    5    charge:    0.8805    magn:    0.0011    constr:    0.0000
     atom:    6    charge:    0.8815    magn:   -0.0001    constr:    0.0000
     atom:    7    charge:    0.8804    magn:    0.0017    constr:    0.0000
     atom:    8    charge:    0.8827    magn:    0.0009    constr:    0.0000
     atom:    9    charge:    0.8867    magn:    0.0011    constr:    0.0000
     atom:   10    charge:    0.8805    magn:    0.0030    constr:    0.0000
     atom:   11    charge:    0.8855    magn:   -0.0004    constr:    0.0000
     atom:   12    charge:    0.8829    magn:    0.0003    constr:    0.0000
     atom:   13    charge:    0.8823    magn:    0.0001    constr:    0.0000
     atom:   14    charge:    0.8815    magn:   -0.0001    constr:    0.0000
     atom:   15    charge:    0.8827    magn:    0.0013    constr:    0.0000
     atom:   16    charge:    0.8899    magn:    0.0055    constr:    0.0000
     atom:   17    charge:    0.9057    magn:    0.0120    constr:    0.0000
     atom:   18    charge:    0.8967    magn:    0.0028    constr:    0.0000
     atom:   19    charge:    0.9030    magn:    0.0057    constr:    0.0000
     atom:   20    charge:    0.8829    magn:    0.0004    constr:    0.0000
     atom:   21    charge:    0.8805    magn:    0.0011    constr:    0.0000
     atom:   22    charge:    0.8801    magn:    0.0002    constr:    0.0000
     atom:   23    charge:    0.8805    magn:   -0.0006    constr:    0.0000
     atom:   24    charge:    0.8775    magn:    0.0089    constr:    0.0000
     atom:   25    charge:    1.7894    magn:    0.2003    constr:    0.0000
     atom:   26    charge:    0.8967    magn:    0.0028    constr:    0.0000
     atom:   27    charge:    0.8855    magn:   -0.0004    constr:    0.0000
     atom:   28    charge:    0.8800    magn:    0.0004    constr:    0.0000
     atom:   29    charge:    0.8807    magn:    0.0009    constr:    0.0000
     atom:   30    charge:    0.8815    magn:    0.0009    constr:    0.0000
     atom:   31    charge:    0.8842    magn:    0.0052    constr:    0.0000
     atom:   32    charge:    0.8775    magn:    0.0089    constr:    0.0000
     atom:   33    charge:    0.9057    magn:    0.0120    constr:    0.0000
     atom:   34    charge:    0.8805    magn:    0.0030    constr:    0.0000
     atom:   35    charge:    0.8805    magn:   -0.0002    constr:    0.0000
     atom:   36    charge:    0.8819    magn:   -0.0003    constr:    0.0000
     atom:   37    charge:    0.8814    magn:    0.0005    constr:    0.0000
     atom:   38    charge:    0.8815    magn:    0.0009    constr:    0.0000
     atom:   39    charge:    0.8805    magn:   -0.0006    constr:    0.0000
     atom:   40    charge:    0.8899    magn:    0.0055    constr:    0.0000
     atom:   41    charge:    0.8867    magn:    0.0011    constr:    0.0000
     atom:   42    charge:    0.8815    magn:    0.0013    constr:    0.0000
     atom:   43    charge:    0.8820    magn:    0.0013    constr:    0.0000
     atom:   44    charge:    0.8819    magn:   -0.0003    constr:    0.0000
     atom:   45    charge:    0.8807    magn:    0.0009    constr:    0.0000
     atom:   46    charge:    0.8801    magn:    0.0002    constr:    0.0000
     atom:   47    charge:    0.8827    magn:    0.0013    constr:    0.0000
     atom:   48    charge:    0.8827    magn:    0.0009    constr:    0.0000
     atom:   49    charge:    0.8808    magn:    0.0000    constr:    0.0000
     atom:   50    charge:    2.8704    magn:   -0.0001    constr:    0.0000
     atom:   51    charge:    2.8737    magn:   -0.0004    constr:    0.0000
     atom:   52    charge:    2.8709    magn:    0.0028    constr:    0.0000
     atom:   53    charge:    2.8696    magn:    0.0050    constr:    0.0000
     atom:   54    charge:    2.8707    magn:   -0.0005    constr:    0.0000
     atom:   55    charge:    2.8735    magn:    0.0008    constr:    0.0000
     atom:   56    charge:    2.8725    magn:    0.0003    constr:    0.0000
     atom:   57    charge:    2.8694    magn:    0.0018    constr:    0.0000
     atom:   58    charge:    2.8658    magn:    0.0034    constr:    0.0000
     atom:   59    charge:    2.8749    magn:    0.0170    constr:    0.0000
     atom:   60    charge:    2.8782    magn:   -0.0169    constr:    0.0000
     atom:   61    charge:    2.8663    magn:    0.0151    constr:    0.0000
     atom:   62    charge:    2.8699    magn:    0.0116    constr:    0.0000
     atom:   63    charge:    2.8735    magn:    0.0008    constr:    0.0000
     atom:   64    charge:    2.8687    magn:   -0.0001    constr:    0.0000
     atom:   65    charge:    2.8700    magn:    0.0063    constr:    0.0000
     atom:   66    charge:    2.8783    magn:   -0.0101    constr:    0.0000
     atom:   67    charge:    1.7678    magn:   -0.0820    constr:    0.0000
     atom:   68    charge:    2.8661    magn:    0.0964    constr:    0.0000
     atom:   69    charge:    2.8663    magn:    0.0151    constr:    0.0000
     atom:   70    charge:    2.8707    magn:   -0.0005    constr:    0.0000
     atom:   71    charge:    2.8713    magn:    0.0003    constr:    0.0000
     atom:   72    charge:    2.8701    magn:   -0.0005    constr:    0.0000
     atom:   73    charge:    2.8655    magn:    0.0091    constr:    0.0000
     atom:   74    charge:    2.8286    magn:    0.1025    constr:    0.0000
     atom:   75    charge:    1.7679    magn:   -0.0819    constr:    0.0000
     atom:   76    charge:    2.8782    magn:   -0.0169    constr:    0.0000
     atom:   77    charge:    2.8696    magn:    0.0050    constr:    0.0000
     atom:   78    charge:    2.8687    magn:   -0.0003    constr:    0.0000
     atom:   79    charge:    2.8704    magn:   -0.0001    constr:    0.0000
     atom:   80    charge:    2.8747    magn:    0.0063    constr:    0.0000
     atom:   81    charge:    2.8655    magn:    0.0091    constr:    0.0000
     atom:   82    charge:    2.8783    magn:   -0.0101    constr:    0.0000
     atom:   83    charge:    2.8748    magn:    0.0170    constr:    0.0000
     atom:   84    charge:    2.8709    magn:    0.0028    constr:    0.0000
     atom:   85    charge:    2.8691    magn:    0.0002    constr:    0.0000
     atom:   86    charge:    2.8697    magn:    0.0004    constr:    0.0000
     atom:   87    charge:    2.8704    magn:   -0.0001    constr:    0.0000
     atom:   88    charge:    2.8701    magn:   -0.0005    constr:    0.0000
     atom:   89    charge:    2.8700    magn:    0.0063    constr:    0.0000
     atom:   90    charge:    2.8658    magn:    0.0034    constr:    0.0000
     atom:   91    charge:    2.8737    magn:   -0.0004    constr:    0.0000
     atom:   92    charge:    2.8705    magn:    0.0009    constr:    0.0000
     atom:   93    charge:    2.8691    magn:    0.0002    constr:    0.0000
     atom:   94    charge:    2.8687    magn:   -0.0003    constr:    0.0000
     atom:   95    charge:    2.8713    magn:    0.0003    constr:    0.0000
     atom:   96    charge:    2.8687    magn:   -0.0001    constr:    0.0000
     atom:   97    charge:    2.8694    magn:    0.0018    constr:    0.0000
     atom:   98    charge:    2.8704    magn:   -0.0001    constr:    0.0000

     total cpu time spent up to now is     1134.1 secs

     End of self-consistent calculation

 ------ SPIN UP ------------


          k = 0.0000 0.0000 0.0000 ( 77079 PWs)   bands (ev):

   -21.8736 -21.6484 -21.3877 -21.3829 -21.3668 -21.3255 -21.3146 -20.9181
   -20.6619 -20.6567 -20.6353 -20.5591 -20.5564 -20.4253 -20.3088 -20.3019
   -20.3010 -20.1577 -20.1480 -19.6259 -19.4193 -19.4012 -19.3961 -19.3908
   -19.3769 -19.3758 -19.3671 -19.3580 -19.3443 -19.1770 -19.1669 -19.0480
   -18.9858 -18.9812 -18.9719 -18.7833 -18.7803 -18.5528 -18.5472 -18.5461
   -18.5194 -18.4537 -18.4422 -18.3982 -18.3722 -18.3476 -18.3466 -16.8797
   -14.7939 -13.1686 -12.7808 -12.7753 -12.7539 -12.7173 -12.7097 -12.6473
   -12.5687 -12.5449 -12.5253 -12.4895 -12.4275 -12.1477 -12.0824 -12.0719
   -12.0341 -11.9853 -11.9608 -11.5638 -11.4258 -11.4198 -11.3945 -11.3921
   -11.3663 -11.3621 -11.3610 -11.3344 -11.3049 -11.0914 -11.0408 -10.8807
   -10.7150 -10.7065 -10.6863 -10.6734 -10.5202 -10.0858 -10.0472 -10.0099
    -9.9263  -9.8852  -9.8159  -9.4249  -9.3526  -9.3250  -9.3032  -9.2866
    -9.2780  -9.2051  -9.0600  -8.9797  -8.9301  -8.9264  -8.8943  -8.8867
    -8.8848  -8.8766  -8.8637  -8.8514  -8.8465  -8.8302  -8.8254  -8.8244
    -8.8216  -8.8184  -8.8082  -8.7713  -8.7622  -8.7494  -8.6687  -8.6508
    -8.4806  -8.4791  -8.1910  -8.1718  -8.1689  -8.1221  -8.1001  -8.0193
    -7.8802  -7.8466  -7.8314  -7.8068  -7.7372  -7.7316  -7.5826  -7.5196
    -7.5190  -7.4753  -7.4674  -7.4483  -7.4359  -7.4053  -7.4004  -7.3682
    -7.3642  -7.3470  -7.3459  -7.2820  -7.2394  -7.2209  -7.2046  -7.0187
    -7.0111  -6.9850  -6.9294  -6.8318  -6.6416  -6.5219  -6.3273  -6.2073
    -6.1777  -6.1551  -6.0926  -6.0835  -6.0830  -6.0685  -6.0681  -6.0519
    -6.0497  -6.0363  -6.0322  -6.0065  -5.8707  -5.7920  -5.7654  -5.6604
    -5.5503  -5.4605  -5.4567  -5.4499  -5.3250  -5.2360  -5.0059  -4.9518
    -4.8049  -4.7985  -4.7849  -4.7580  -4.6727  -4.6597  -4.5673  -4.5198
    -4.5124  -4.5011  -4.3835  -3.0346   0.0194   0.1776   0.6882   0.6907
     0.7079   0.7326   0.7415   0.7431   0.7901   0.7961   0.8063   0.8128
     0.8182   0.8319   0.8493   0.8540   0.8806   0.8969   0.8972   0.9419
     0.9825   1.1445   1.2142   1.2433   1.2437   1.2859   1.3137   1.3197
     1.3263   1.3306   1.3399   1.3561   1.3849   1.4363   1.4392   1.4423
     1.4485   1.4563   1.4774   1.8802   2.0874   2.0974   2.1021   2.1124
     2.1126   2.1302   2.1400   2.2087   2.2724
[...]
     atom:   55    charge:    2.6901    magn:    0.0008    constr:    0.0000
     atom:   56    charge:    2.6930    magn:    0.0003    constr:    0.0000
     atom:   57    charge:    2.6934    magn:    0.0017    constr:    0.0000
     atom:   58    charge:    2.6936    magn:    0.0030    constr:    0.0000
     atom:   59    charge:    2.6843    magn:    0.0163    constr:    0.0000
     atom:   60    charge:    2.6865    magn:   -0.0168    constr:    0.0000
     atom:   61    charge:    2.6938    magn:    0.0139    constr:    0.0000
     atom:   62    charge:    2.6892    magn:    0.0098    constr:    0.0000
     atom:   63    charge:    2.6901    magn:    0.0008    constr:    0.0000
     atom:   64    charge:    2.6983    magn:    0.0000    constr:    0.0000
     atom:   65    charge:    2.6984    magn:    0.0046    constr:    0.0000
     atom:   66    charge:    2.6957    magn:   -0.0106    constr:    0.0000
     atom:   67    charge:    1.7575    magn:   -0.0785    constr:    0.0000
     atom:   68    charge:    2.6793    magn:    0.0963    constr:    0.0000
     atom:   69    charge:    2.6938    magn:    0.0139    constr:    0.0000
     atom:   70    charge:    2.6975    magn:   -0.0004    constr:    0.0000
     atom:   71    charge:    2.6969    magn:    0.0004    constr:    0.0000
     atom:   72    charge:    2.6923    magn:   -0.0004    constr:    0.0000
     atom:   73    charge:    2.6868    magn:    0.0077    constr:    0.0000
     atom:   74    charge:    2.6577    magn:    0.0907    constr:    0.0000
     atom:   75    charge:    1.7575    magn:   -0.0785    constr:    0.0000
     atom:   76    charge:    2.6865    magn:   -0.0168    constr:    0.0000
     atom:   77    charge:    2.6958    magn:    0.0038    constr:    0.0000
     atom:   78    charge:    2.6956    magn:   -0.0002    constr:    0.0000
     atom:   79    charge:    2.6920    magn:   -0.0001    constr:    0.0000
     atom:   80    charge:    2.6875    magn:    0.0047    constr:    0.0000
     atom:   81    charge:    2.6868    magn:    0.0077    constr:    0.0000
     atom:   82    charge:    2.6957    magn:   -0.0106    constr:    0.0000
     atom:   83    charge:    2.6844    magn:    0.0163    constr:    0.0000
     atom:   84    charge:    2.6864    magn:    0.0022    constr:    0.0000
     atom:   85    charge:    2.6935    magn:    0.0000    constr:    0.0000
     atom:   86    charge:    2.6930    magn:    0.0004    constr:    0.0000
     atom:   87    charge:    2.6920    magn:   -0.0001    constr:    0.0000
     atom:   88    charge:    2.6923    magn:   -0.0004    constr:    0.0000
     atom:   89    charge:    2.6984    magn:    0.0046    constr:    0.0000
     atom:   90    charge:    2.6936    magn:    0.0030    constr:    0.0000
     atom:   91    charge:    2.6964    magn:   -0.0003    constr:    0.0000
     atom:   92    charge:    2.6996    magn:    0.0005    constr:    0.0000
     atom:   93    charge:    2.6935    magn:    0.0000    constr:    0.0000
     atom:   94    charge:    2.6956    magn:   -0.0002    constr:    0.0000
     atom:   95    charge:    2.6969    magn:    0.0004    constr:    0.0000
     atom:   96    charge:    2.6983    magn:    0.0000    constr:    0.0000
     atom:   97    charge:    2.6934    magn:    0.0017    constr:    0.0000
     atom:   98    charge:    2.6981    magn:   -0.0002    constr:    0.0000

     total cpu time spent up to now is     5002.9 secs

     End of self-consistent calculation

 ------ SPIN UP ------------


          k = 0.0000 0.0000 0.0000 ( 77463 PWs)   bands (ev):

   -21.8176 -21.6256 -21.4003 -21.3898 -21.3812 -21.3025 -21.2872 -20.8791
   -20.6646 -20.6558 -20.6237 -20.5520 -20.5480 -20.4310 -20.2978 -20.2923
   -20.2800 -20.1315 -20.1079 -19.5939 -19.4206 -19.4076 -19.4001 -19.3950
   -19.3844 -19.3753 -19.3699 -19.3326 -19.3045 -19.1789 -19.1669 -19.0404
   -18.9768 -18.9739 -18.9526 -18.7687 -18.7681 -18.5544 -18.5463 -18.5258
   -18.5242 -18.4751 -18.4260 -18.4042 -18.3706 -18.3468 -18.3463 -16.7339
   -14.7402 -13.1294 -12.7794 -12.7738 -12.7501 -12.7223 -12.7174 -12.6546
   -12.5690 -12.5345 -12.5257 -12.4791 -12.4115 -12.1542 -12.0713 -12.0624
   -12.0268 -11.9797 -11.9454 -11.5594 -11.4208 -11.4128 -11.3954 -11.3950
   -11.3722 -11.3695 -11.3616 -11.3167 -11.3012 -11.0767 -11.0472 -10.8761
   -10.7257 -10.7124 -10.6779 -10.6521 -10.5031 -10.0725 -10.0336 -10.0106
    -9.9375  -9.8782  -9.8182  -9.4007  -9.3380  -9.3214  -9.3137  -9.2918
    -9.2819  -9.2227  -9.0601  -8.9498  -8.9475  -8.9167  -8.9130  -8.9075
    -8.9020  -8.8896  -8.8823  -8.8642  -8.8360  -8.8305  -8.8276  -8.8262
    -8.8207  -8.7987  -8.7980  -8.7482  -8.7297  -8.7089  -8.6559  -8.6427
    -8.4696  -8.4534  -8.2232  -8.1924  -8.1923  -8.0927  -8.0846  -7.9891
    -7.8609  -7.8415  -7.8380  -7.7980  -7.7265  -7.7231  -7.5609  -7.5129
    -7.5043  -7.4773  -7.4746  -7.4546  -7.4440  -7.4074  -7.4050  -7.3575
    -7.3422  -7.3401  -7.3333  -7.2777  -7.2262  -7.2237  -7.1810  -7.0388
    -7.0310  -7.0004  -6.8934  -6.8142  -6.6520  -6.5348  -6.3019  -6.1956
    -6.1871  -6.1596  -6.0938  -6.0815  -6.0725  -6.0713  -6.0705  -6.0576
    -6.0509  -6.0475  -6.0325  -5.9752  -5.8697  -5.8151  -5.7981  -5.7011
    -5.5453  -5.4559  -5.4541  -5.4465  -5.3100  -5.2373  -5.1022  -5.0323
    -4.8035  -4.8028  -4.7819  -4.7634  -4.6803  -4.6708  -4.5742  -4.5220
    -4.5174  -4.5056  -4.3523  -3.0698  -0.0534   0.1759   0.6738   0.6768
     0.7064   0.7198   0.7268   0.7285   0.7767   0.7906   0.8041   0.8054
     0.8109   0.8262   0.8344   0.8521   0.8621   0.8914   0.9079   0.9335
     0.9615   1.1152   1.2120   1.2302   1.2328   1.2620   1.3107   1.3166
     1.3217   1.3264   1.3383   1.3578   1.3914   1.4354   1.4378   1.4411
     1.4496   1.4599   1.4834   1.8821   2.0577   2.0919   2.0957   2.1086
     2.2626   2.2948   2.3161   2.3171   2.3779

 ------ SPIN DOWN ----------


          k = 0.0000 0.0000 0.0000 ( 77463 PWs)   bands (ev):

   -21.7628 -21.5285 -21.3971 -21.3843 -21.3744 -21.2958 -21.2396 -20.8205
   -20.6575 -20.6375 -20.6229 -20.5476 -20.5324 -20.4145 -20.2889 -20.2867
   -20.2568 -20.1091 -20.0932 -19.5521 -19.4133 -19.4011 -19.3945 -19.3892
   -19.3799 -19.3730 -19.3575 -19.3114 -19.3024 -19.1611 -19.1568 -19.0306
   -18.9715 -18.9714 -18.9278 -18.7682 -18.7520 -18.5458 -18.5404 -18.5182
   -18.5074 -18.4691 -18.4155 -18.3968 -18.3681 -18.3410 -18.3294 -16.6117
   -14.8613 -13.0565 -12.7733 -12.7649 -12.7463 -12.7199 -12.7140 -12.6459
   -12.5628 -12.5278 -12.5206 -12.4689 -12.3993 -12.1427 -12.0625 -12.0532
   -12.0267 -11.9757 -11.9336 -11.5387 -11.4070 -11.3999 -11.3901 -11.3843
   -11.3690 -11.3574 -11.3572 -11.3066 -11.2895 -11.0834 -11.0344 -10.8574
   -10.7196 -10.7098 -10.6700 -10.6420 -10.4941 -10.0580 -10.0212  -9.9997
    -9.9268  -9.8731  -9.8117  -9.3881  -9.3105  -9.3035  -9.3008  -9.2883
    -9.2779  -9.2217  -9.0407  -8.9328  -8.9096  -8.9061  -8.9032  -8.8912
    -8.8844  -8.8766  -8.8560  -8.8439  -8.8281  -8.8255  -8.8235  -8.8101
    -8.8023  -8.7940  -8.7914  -8.7321  -8.7237  -8.6492  -8.6327  -8.5982
    -8.4685  -8.4511  -8.2204  -8.1909  -8.1899  -8.0828  -8.0735  -7.8611
    -7.8389  -7.8218  -7.7969  -7.7926  -7.7133  -7.6842  -7.5479  -7.5022
    -7.4958  -7.4730  -7.4525  -7.4424  -7.4008  -7.3994  -7.3836  -7.3368
    -7.3297  -7.3249  -7.2915  -7.2744  -7.2146  -7.1848  -7.1562  -7.0291
    -7.0281  -6.9959  -6.8820  -6.8071  -6.6559  -6.5453  -6.1893  -6.1814
    -6.1548  -6.1328  -6.0752  -6.0660  -6.0642  -6.0568  -6.0523  -6.0459
    -6.0371  -6.0206  -5.9822  -5.9596  -5.8244  -5.8197  -5.7885  -5.7111
    -5.4968  -5.4450  -5.4366  -5.4067  -5.2806  -5.2409  -5.1147  -5.0441
    -4.7801  -4.7700  -4.7466  -4.7443  -4.6674  -4.6557  -4.5519  -4.5124
    -4.4938  -4.4902  -4.1629  -3.3868   0.1845   0.4789   0.7067   0.7139
     0.7170   0.7336   0.7457   0.7535   0.7931   0.8053   0.8069   0.8086
     0.8143   0.8357   0.8547   0.8629   0.8809   0.9200   0.9399   0.9468
     1.0143   1.1698   1.2291   1.2565   1.2629   1.3118   1.3176   1.3177
     1.3226   1.3281   1.3462   1.3648   1.4187   1.4348   1.4371   1.4408
     1.4510   1.4607   1.4909   1.8888   2.0977   2.1022   2.1138   2.1247
     2.1434   2.2965   2.3043   2.3160   2.3282

     highest occupied, lowest unoccupied level (ev):    -4.3523   -4.1629

!    total energy              =   -1940.16898639 Ry
     Harris-Foulkes estimate   =   -1940.16898639 Ry
     estimated scf accuracy    <          2.3E-09 Ry

     total all-electron energy =     -7769.993463 Ry

     The total energy is the sum of the following terms:

     one-electron contribution =  -10645.08298874 Ry
     hartree contribution      =    5408.13436751 Ry
     xc contribution           =    -430.66994191 Ry
     ewald contribution        =    4370.89748217 Ry
     DFT-D3 Dispersion         =      -0.27014880 Ry
     one-center paw contrib.   =    -643.17775662 Ry

     total magnetization       =     1.00 Bohr mag/cell
     absolute magnetization    =     2.03 Bohr mag/cell

     convergence has been achieved in  18 iterations

     negative rho (up, down):  4.800E-01 8.157E-03

     Forces acting on atoms (cartesian axes, Ry/au):

     atom    1 type  1   force =    -0.00006446   -0.00033694    0.00000000
     atom    2 type  1   force =    -0.00026080   -0.00018297    0.00000000
     atom    3 type  1   force =    -0.00028745    0.00005362    0.00000000
     atom    4 type  1   force =    -0.00009205    0.00015938    0.00000000
     atom    5 type  1   force =     0.00036733   -0.00039252    0.00000000
     atom    6 type  1   force =     0.00021198   -0.00006386    0.00000000
     atom    7 type  1   force =    -0.00023293    0.00013095    0.00000000
     atom    8 type  1   force =    -0.00018332    0.00031876    0.00000000
     atom    9 type  1   force =     0.00005342    0.00009864    0.00000000
     atom   10 type  1   force =    -0.00019632   -0.00019720    0.00000000
     atom   11 type  1   force =    -0.00015509   -0.00027435    0.00000000
     atom   12 type  1   force =     0.00040321   -0.00012747    0.00000000
     atom   13 type  1   force =     0.00041856   -0.00024305    0.00000000
     atom   14 type  1   force =     0.00016016   -0.00015446    0.00000000
     atom   15 type  1   force =     0.00002929    0.00003483    0.00000000
     atom   16 type  1   force =    -0.00016767    0.00010008    0.00000000
     atom   17 type  1   force =     0.00001467   -0.00033222    0.00000000
     atom   18 type  1   force =    -0.00011458   -0.00032408    0.00000000
     atom   19 type  1   force =    -0.00003159    0.00001787    0.00000000
     atom   20 type  1   force =     0.00031285   -0.00028697    0.00000000
     atom   21 type  1   force =     0.00052392   -0.00012423    0.00000000
     atom   22 type  1   force =     0.00028606   -0.00033335    0.00000000
     atom   23 type  1   force =    -0.00014408    0.00031373    0.00000000
     atom   24 type  1   force =    -0.00020638    0.00005706    0.00000000
     atom   25 type  4   force =     0.00013064   -0.00007948    0.00000000
     atom   26 type  1   force =     0.00022691    0.00025901    0.00000000
     atom   27 type  1   force =     0.00016020    0.00027188    0.00000000
     atom   28 type  1   force =    -0.00018283   -0.00000251    0.00000000
     atom   29 type  1   force =    -0.00003725    0.00007797    0.00000000
     atom   30 type  1   force =     0.00001062   -0.00009752    0.00000000
     atom   31 type  1   force =    -0.00023943    0.00013842    0.00000000
     atom   32 type  1   force =    -0.00015144    0.00014846    0.00000000
     atom   33 type  1   force =     0.00029156    0.00015185    0.00000000
     atom   34 type  1   force =     0.00007352    0.00026748    0.00000000
     atom   35 type  1   force =    -0.00019030    0.00022137    0.00000000
     atom   36 type  1   force =    -0.00013738    0.00015894    0.00000000
     atom   37 type  1   force =     0.00002778   -0.00001455    0.00000000
     atom   38 type  1   force =     0.00009094    0.00004148    0.00000000
     atom   39 type  1   force =    -0.00034190   -0.00003136    0.00000000
     atom   40 type  1   force =    -0.00016897    0.00009568    0.00000000
     atom   41 type  1   force =    -0.00005942   -0.00009564    0.00000000
     atom   42 type  1   force =     0.00002858    0.00031572    0.00000000
     atom   43 type  1   force =    -0.00003477    0.00001937    0.00000000
     atom   44 type  1   force =    -0.00020718    0.00004016    0.00000000
     atom   45 type  1   force =    -0.00008703   -0.00000535    0.00000000
     atom   46 type  1   force =     0.00043114   -0.00008029    0.00000000
     atom   47 type  1   force =    -0.00001555   -0.00004297    0.00000000
     atom   48 type  1   force =    -0.00036715   -0.00000105    0.00000000
     atom   49 type  1   force =     0.00026116    0.00022097    0.00000000
     atom   50 type  2   force =     0.00028704   -0.00000421    0.00000000
     atom   51 type  2   force =     0.00008949   -0.00016421    0.00000000
     atom   52 type  2   force =    -0.00043332   -0.00027644    0.00000000
     atom   53 type  2   force =    -0.00022350    0.00000185    0.00000000
     atom   54 type  2   force =     0.00049741    0.00012818    0.00000000
     atom   55 type  2   force =     0.00008760    0.00002251    0.00000000
     atom   56 type  2   force =     0.00013286   -0.00007391    0.00000000
     atom   57 type  2   force =    -0.00009538   -0.00016110    0.00000000
     atom   58 type  2   force =    -0.00007348   -0.00034517    0.00000000
     atom   59 type  2   force =    -0.00030015   -0.00050981    0.00000000
     atom   60 type  2   force =    -0.00050345   -0.00001504    0.00000000
     atom   61 type  2   force =    -0.00025526   -0.00004908    0.00000000
     atom   62 type  2   force =     0.00018779   -0.00010814    0.00000000
     atom   63 type  2   force =     0.00002454   -0.00008446    0.00000000
     atom   64 type  2   force =    -0.00021592   -0.00007644    0.00000000
     atom   65 type  2   force =    -0.00011480   -0.00030514    0.00000000
     atom   66 type  2   force =     0.00005102   -0.00016257    0.00000000
     atom   67 type  3   force =    -0.00021074   -0.00032503    0.00000000
     atom   68 type  2   force =    -0.00033448    0.00019015    0.00000000
     atom   69 type  2   force =    -0.00008642    0.00024595    0.00000000
     atom   70 type  2   force =     0.00013630   -0.00049249    0.00000000
     atom   71 type  2   force =     0.00012703   -0.00033811    0.00000000
     atom   72 type  2   force =    -0.00032612   -0.00009234    0.00000000
     atom   73 type  2   force =    -0.00017097   -0.00006962    0.00000000
     atom   74 type  2   force =     0.00026035   -0.00015036    0.00000000
     atom   75 type  5   force =     0.00017680    0.00035223    0.00000000
     atom   76 type  2   force =    -0.00023698    0.00044580    0.00000000
     atom   77 type  2   force =    -0.00011333    0.00019329    0.00000000
     atom   78 type  2   force =    -0.00001844   -0.00031069    0.00000000
     atom   79 type  2   force =    -0.00024288    0.00005883    0.00000000
     atom   80 type  2   force =    -0.00015742    0.00008883    0.00000000
     atom   81 type  2   force =    -0.00002728    0.00018317    0.00000000
     atom   82 type  2   force =     0.00016848    0.00003885    0.00000000
     atom   83 type  2   force =     0.00029222    0.00051831    0.00000000
     atom   84 type  2   force =     0.00002336    0.00051340    0.00000000
     atom   85 type  2   force =    -0.00014445   -0.00029143    0.00000000
     atom   86 type  2   force =    -0.00003907    0.00002268    0.00000000
     atom   87 type  2   force =    -0.00017266    0.00017897    0.00000000
     atom   88 type  2   force =    -0.00008330    0.00032749    0.00000000
     atom   89 type  2   force =     0.00020488    0.00025172    0.00000000
     atom   90 type  2   force =     0.00025951    0.00023465    0.00000000
     atom   91 type  2   force =     0.00018409    0.00000355    0.00000000
     atom   92 type  2   force =     0.00023016   -0.00013074    0.00000000
     atom   93 type  2   force =     0.00018157    0.00027151    0.00000000
     atom   94 type  2   force =     0.00026100    0.00017042    0.00000000
     atom   95 type  2   force =     0.00035842    0.00005814    0.00000000
     atom   96 type  2   force =    -0.00004038    0.00022539    0.00000000
     atom   97 type  2   force =     0.00009243    0.00016411    0.00000000
     atom   98 type  2   force =     0.00014871   -0.00024277    0.00000000

     Total force =     0.003065     Total SCF correction =     0.000083


     Computing stress (Cartesian axis) and pressure


     negative rho (up, down):  4.800E-01 8.157E-03
          total   stress  (Ry/bohr**3)                   (kbar)     P=   -0.12
   0.00000045  -0.00000001   0.00000000          0.07     -0.00      0.00
  -0.00000001   0.00000044   0.00000000         -0.00      0.06      0.00
   0.00000000   0.00000000  -0.00000333          0.00      0.00     -0.49


     Writing output data file C2Cn.save/
 
     init_run     :      8.63s CPU      8.90s WALL (       2 calls)
     electrons    :   4776.16s CPU   4815.39s WALL (      10 calls)
     update_pot   :     25.46s CPU     25.58s WALL (       8 calls)
     forces       :     36.34s CPU     36.91s WALL (      10 calls)
     stress       :    122.45s CPU    123.12s WALL (      10 calls)

     Called by init_run:
     wfcinit      :      3.31s CPU      3.44s WALL (       2 calls)
     potinit      :      1.85s CPU      1.88s WALL (       2 calls)
     hinit0       :      2.62s CPU      2.65s WALL (       2 calls)

     Called by electrons:
     c_bands      :   4645.37s CPU   4679.12s WALL (     120 calls)
     sum_band     :     67.12s CPU     68.86s WALL (     120 calls)
     v_of_rho     :     21.69s CPU     22.08s WALL (     127 calls)
     newd         :      7.36s CPU      8.44s WALL (     127 calls)
     PAW_pot      :     25.46s CPU     25.63s WALL (     135 calls)
     mix_rho      :      2.02s CPU      2.08s WALL (     120 calls)

     Called by c_bands:
     init_us_2    :      4.65s CPU      4.73s WALL (     540 calls)
     rcgdiagg     :   4520.96s CPU   4552.50s WALL (     262 calls)
     wfcrot       :    123.80s CPU    125.75s WALL (     240 calls)

     Called by sum_band:
     sum_band:bec :      0.15s CPU      0.15s WALL (     256 calls)
     addusdens    :      7.91s CPU      9.02s WALL (     120 calls)

     Called by *cgdiagg:
     h_psi        :   2297.80s CPU   2314.63s WALL (  202817 calls)
     s_psi        :   1350.44s CPU   1360.02s WALL (  405394 calls)
     rdiaghg      :      3.54s CPU      3.63s WALL (     240 calls)

     Called by h_psi:
     h_psi:pot    :   2295.52s CPU   2312.32s WALL (  202817 calls)
     h_psi:calbec :    832.87s CPU    838.72s WALL (  202817 calls)
     vloc_psi     :    773.63s CPU    781.07s WALL (  202817 calls)
     add_vuspsi   :    687.20s CPU    691.25s WALL (  202817 calls)
     hs_1psi      :   2865.32s CPU   2885.07s WALL (  202577 calls)
     s_1psi       :   1391.36s CPU   1400.62s WALL (  202577 calls)

     General routines
     calbec       :   1558.36s CPU   1570.10s WALL (  405750 calls)
     fft          :     20.96s CPU     21.18s WALL (    2483 calls)
     ffts         :      0.92s CPU      0.93s WALL (     240 calls)
     fftw         :    731.92s CPU    739.05s WALL (  494298 calls)
 
     Parallel routines
     fft_scatt_xy :     72.50s CPU     73.07s WALL (  497021 calls)
     fft_scatt_yz :    233.11s CPU    235.68s WALL (  497021 calls)
 
     PWSCF        :      1h22m CPU      1h23m WALL

 
   This run was terminated on:  15: 7:37   1Jul2021            

=------------------------------------------------------------------------------=
   JOB DONE.
=------------------------------------------------------------------------------=
