
     Program PWSCF v.6.4.1 starts on 30Jul2021 at 23:36:28 

     This program is part of the open-source Quantum ESPRESSO suite
     for quantum simulation of materials; please cite
         "P. Giannozzi et al., J. Phys.:Condens. Matter 21 395502 (2009);
         "P. Giannozzi et al., J. Phys.:Condens. Matter 29 465901 (2017);
          URL http://www.quantum-espresso.org", 
     in publications or presentations arising from this work. More details at
     http://www.quantum-espresso.org/quote

     Parallel version (MPI), running on    64 processors

     MPI processes distributed on     2 nodes
     R & G space division:  proc/nbgrp/npool/nimage =      64
     Waiting for input...
     Reading input from standard input

     Current dimensions of program PWSCF are:
     Max number of different atomic species (ntypx) = 10
     Max number of k-points (npk) =  40000
     Max angular momentum in pseudopotentials (lmaxx) =  3

     IMPORTANT: XC functional enforced from input :
     Exchange-correlation      = HSE ( 1  4 12  4 0 0)
     EXX-fraction              =        0.25
     Using LIBXC version       =    4   3   4
     Any further DFT definition will be discarded
     Please, verify this is what you really want

               file N.pbe-n-kjpaw_psl.1.0.0.UPF: wavefunction(s)  2S renormalized
               file C.pbe-n-kjpaw_psl.1.0.0.UPF: wavefunction(s)  2S 2P renormalized
               file C.pbe-n-kjpaw_psl.1.0.0.UPF: wavefunction(s)  2S 2P renormalized
               file C.pbe-n-kjpaw_psl.1.0.0.UPF: wavefunction(s)  2S 2P renormalized
     EXX fraction changed:   0.32
     EXX Screening parameter changed:    0.0455000

     --------------------------------------------
     Parameters for DFT-D3 Dispersion Correction:
     --------------------------------------------
       Reference C6 values for interpolation: 

         atom   Coordination number   C6
         B          0.000           214.36
         B          0.971           150.74
         B          1.944           106.23
         B          2.913            62.89
         B          4.586            56.06
         C1         0.000            98.23
         C1         0.987            86.49
         C1         1.998            58.72
         C1         2.999            51.56
         C1         3.984            36.41
         C2         0.000            98.23
         C2         0.987            86.49
         C2         1.998            58.72
         C2         2.999            51.56
         C2         3.984            36.41
         C3         0.000            98.23
         C3         0.987            86.49
         C3         1.998            58.72
         C3         2.999            51.56
         C3         3.984            36.41
         N          0.000            50.54
         N          0.994            44.25
         N          2.014            39.35
         N          2.990            31.16

       Values used:

         atom   Coordination number  R0_AB[au]  C6      C8
         B          3.326            3.039     62.90   2506.22
         B          3.318            3.039     62.90   2506.42
         B          3.320            3.039     62.90   2506.37
         B          3.324            3.039     62.90   2506.29
         B          3.326            3.039     62.90   2506.23
         B          3.324            3.039     62.90   2506.27
         B          3.327            3.039     62.90   2506.21
         B          3.326            3.039     62.90   2506.24
         B          3.321            3.039     62.90   2506.34
         B          3.311            3.039     62.91   2506.58
         B          3.319            3.039     62.90   2506.40
         B          3.324            3.039     62.90   2506.27
         B          3.324            3.039     62.90   2506.29
         B          3.324            3.039     62.90   2506.27
         B          3.325            3.039     62.90   2506.25
         B          3.329            3.039     62.90   2506.16
         B          3.304            3.039     62.91   2506.74
         B          3.292            3.039     62.92   2507.00
         B          3.318            3.039     62.90   2506.42
         B          3.324            3.039     62.90   2506.27
         B          3.326            3.039     62.90   2506.23
         B          3.322            3.039     62.90   2506.32
         B          3.319            3.039     62.90   2506.39
         B          3.306            3.039     62.91   2506.70
         C2         3.251            2.750     49.40   1428.70
         B          3.292            3.039     62.92   2507.00
         B          3.319            3.039     62.90   2506.40
         B          3.324            3.039     62.90   2506.29
         B          3.321            3.039     62.90   2506.36
         B          3.316            3.039     62.90   2506.45
         B          3.303            3.039     62.91   2506.75
         B          3.306            3.039     62.91   2506.70
         B          3.304            3.039     62.91   2506.74
         B          3.311            3.039     62.91   2506.58
         B          3.320            3.039     62.90   2506.37
         B          3.317            3.039     62.90   2506.43
         B          3.317            3.039     62.90   2506.43
         B          3.316            3.039     62.90   2506.45
         B          3.319            3.039     62.90   2506.39
         B          3.329            3.039     62.90   2506.16
         B          3.321            3.039     62.90   2506.34
         B          3.318            3.039     62.90   2506.42
         B          3.320            3.039     62.90   2506.38
         B          3.317            3.039     62.90   2506.43
         B          3.321            3.039     62.90   2506.36
         B          3.322            3.039     62.90   2506.32
         B          3.325            3.039     62.90   2506.25
         B          3.326            3.039     62.90   2506.24
         B          3.326            3.039     62.90   2506.22
         N          3.130            2.478     31.22    688.74
         N          3.129            2.478     31.22    688.75
         N          3.126            2.478     31.22    688.77
         N          3.128            2.478     31.22    688.75
         N          3.129            2.478     31.22    688.74
         N          3.129            2.478     31.22    688.75
         N          3.129            2.478     31.22    688.75
         N          3.129            2.478     31.22    688.75
         N          3.130            2.478     31.22    688.74
         N          3.126            2.478     31.22    688.77
         N          3.125            2.478     31.22    688.79
         N          3.129            2.478     31.22    688.75
         N          3.129            2.478     31.22    688.75
         N          3.129            2.478     31.22    688.75
         N          3.129            2.478     31.22    688.74
         N          3.130            2.478     31.22    688.73
         N          3.133            2.478     31.22    688.70
         C1         3.189            2.750     50.18   1451.24
         N          3.129            2.478     31.22    688.75
         N          3.129            2.478     31.22    688.75
         N          3.129            2.478     31.22    688.74
         N          3.129            2.478     31.22    688.75
         N          3.127            2.478     31.22    688.77
         N          3.123            2.478     31.22    688.81
         N          3.151            2.478     31.21    688.55
         C3         3.189            2.750     50.18   1451.24
         N          3.125            2.478     31.22    688.79
         N          3.128            2.478     31.22    688.75
         N          3.127            2.478     31.22    688.76
         N          3.127            2.478     31.22    688.77
         N          3.125            2.478     31.22    688.79
         N          3.123            2.478     31.22    688.81
         N          3.133            2.478     31.22    688.70
         N          3.126            2.478     31.22    688.77
         N          3.126            2.478     31.22    688.77
         N          3.127            2.478     31.22    688.77
         N          3.126            2.478     31.22    688.77
         N          3.127            2.478     31.22    688.77
         N          3.127            2.478     31.22    688.77
         N          3.130            2.478     31.22    688.73
         N          3.130            2.478     31.22    688.74
         N          3.129            2.478     31.22    688.75
         N          3.130            2.478     31.22    688.74
         N          3.127            2.478     31.22    688.77
         N          3.127            2.478     31.22    688.76
         N          3.129            2.478     31.22    688.75
         N          3.129            2.478     31.22    688.74
         N          3.129            2.478     31.22    688.75
         N          3.130            2.478     31.22    688.74

         Molecular C6 ( Ry / a.u.^6 ) =    437704.62


     gamma-point specific algorithms are used
     Message from routine setup :
     BEWARE: nonlinear core correction is not consistent with hybrid XC

     Subspace diagonalization in iterative solution of the eigenvalue problem:
     one sub-group per band group will be used
     scalapack distributed-memory algorithm (size of sub-group:  5*  5 procs)

     Message from routine setup:
     DEPRECATED: symmetry with ibrav=0, use correct ibrav instead
     EXX: grid of k+q points same as grid of k-points
 
     Parallelization info
     --------------------
     sticks:   dense  smooth     PW     G-vecs:    dense   smooth      PW
     Min         121     121     29                 9966     9966    1241
     Max         124     124     32                 9980     9980    1256
     Sum        7829    7829   1945               638103   638103   79857
 


     bravais-lattice index     =            0
     lattice parameter (alat)  =      33.2346  a.u.
     unit-cell volume          =   36191.4837 (a.u.)^3
     number of atoms/cell      =           98
     number of atomic types    =            5
     number of electrons       =       391.00
     number of Kohn-Sham states=          245
     kinetic-energy cutoff     =      25.7300  Ry
     charge density cutoff     =     102.9200  Ry
     cutoff for Fock operator  =     102.9200  Ry
     convergence threshold     =      7.3E-02
     mixing beta               =       0.7000
     number of iterations used =            8  plain     mixing
     Exchange-correlation      = HSE ( 1  4 12  4 0 0)
     EXX-fraction              =        0.32
     Using LIBXC version       =    4   3   4

     celldm(1)=  33.234611  celldm(2)=   0.000000  celldm(3)=   0.000000
     celldm(4)=   0.000000  celldm(5)=   0.000000  celldm(6)=   0.000000

     crystal axes: (cart. coord. in units of alat)
               a(1) = (   1.000289   0.000429   0.000000 )  
               a(2) = (  -0.499773   0.866490   0.000000 )  
               a(3) = (   0.000000   0.000000   1.137204 )  

     reciprocal axes: (cart. coord. in units 2 pi/alat)
               b(1) = (  0.999464  0.576470  0.000000 )  
               b(2) = ( -0.000495  1.153796  0.000000 )  
               b(3) = (  0.000000  0.000000  0.879350 )  


     PseudoPot. # 1 for B  read from file:
     ./pseudo/B.pbe-n-kjpaw_psl.1.0.0.UPF
     MD5 check sum: 8c825a5969375aca5c2c6ad5945b3059
     Pseudo is Projector augmented-wave + core cor, Zval =  3.0
     Generated using "atomic" code by A. Dal Corso v.6.3
     Shape of augmentation charge: PSQ
     Using radial grid of 1059 points,  4 beta functions with: 
                l(1) =   0
                l(2) =   0
                l(3) =   1
                l(4) =   1
     Q(r) pseudized with 0 coefficients 


     PseudoPot. # 2 for N  read from file:
     ./pseudo/N.pbe-n-kjpaw_psl.1.0.0.UPF
     MD5 check sum: 14c48229446f9f2d411169a3abcbc3fa
     Pseudo is Projector augmented-wave + core cor, Zval =  5.0
     Generated using "atomic" code by A. Dal Corso v.6.3
     Shape of augmentation charge: PSQ
     Using radial grid of 1085 points,  4 beta functions with: 
                l(1) =   0
                l(2) =   0
                l(3) =   1
                l(4) =   1
     Q(r) pseudized with 0 coefficients 


     PseudoPot. # 3 for C  read from file:
     ./pseudo/C.pbe-n-kjpaw_psl.1.0.0.UPF
     MD5 check sum: 5f16ad9a65e90284d1d834d4ab3b0f7d
     Pseudo is Projector augmented-wave + core cor, Zval =  4.0
     Generated using "atomic" code by A. Dal Corso v.6.3
     Shape of augmentation charge: PSQ
     Using radial grid of 1073 points,  4 beta functions with: 
                l(1) =   0
                l(2) =   0
                l(3) =   1
                l(4) =   1
     Q(r) pseudized with 0 coefficients 


     PseudoPot. # 4 for C  read from file:
     ./pseudo/C.pbe-n-kjpaw_psl.1.0.0.UPF
     MD5 check sum: 5f16ad9a65e90284d1d834d4ab3b0f7d
     Pseudo is Projector augmented-wave + core cor, Zval =  4.0
     Generated using "atomic" code by A. Dal Corso v.6.3
     Shape of augmentation charge: PSQ
     Using radial grid of 1073 points,  4 beta functions with: 
                l(1) =   0
                l(2) =   0
                l(3) =   1
                l(4) =   1
     Q(r) pseudized with 0 coefficients 


     PseudoPot. # 5 for C  read from file:
     ./pseudo/C.pbe-n-kjpaw_psl.1.0.0.UPF
     MD5 check sum: 5f16ad9a65e90284d1d834d4ab3b0f7d
     Pseudo is Projector augmented-wave + core cor, Zval =  4.0
     Generated using "atomic" code by A. Dal Corso v.6.3
     Shape of augmentation charge: PSQ
     Using radial grid of 1073 points,  4 beta functions with: 
                l(1) =   0
                l(2) =   0
                l(3) =   1
                l(4) =   1
     Q(r) pseudized with 0 coefficients 


     atomic species   valence    mass     pseudopotential
        B              3.00    10.00000     B ( 1.00)
        N              5.00    14.00000     N ( 1.00)
        C1             4.00    12.00000     C ( 1.00)
        C2             4.00    12.00000     C ( 1.00)
        C3             4.00    12.00000     C ( 1.00)

     Starting magnetic structure 
     atomic species   magnetization
        B            0.000
        N            0.000
        C1           1.000
        C2           0.000
        C3           0.000

      2 Sym. Ops. (no inversion) found



   Cartesian axes

     site n.     atom                  positions (alat units)
         1           B   tau(   1) = (  -0.0000527   0.0821405   0.5686018  )
         2           B   tau(   2) = (  -0.0714754   0.2061557   0.5686018  )
         3           B   tau(   3) = (  -0.1429707   0.3300493   0.5686018  )
         4           B   tau(   4) = (  -0.2144274   0.4537738   0.5686018  )
         5           B   tau(   5) = (  -0.2853638   0.5775877   0.5686018  )
         6           B   tau(   6) = (  -0.3566225   0.7015119   0.5686018  )
         7           B   tau(   7) = (  -0.4282119   0.8251741   0.5686018  )
         8           B   tau(   8) = (   0.1428061   0.0818212   0.5686018  )
         9           B   tau(   9) = (   0.0711150   0.2052870   0.5686018  )
        10           B   tau(  10) = (   0.0000503   0.3301805   0.5686018  )
        11           B   tau(  11) = (  -0.0717525   0.4535964   0.5686018  )
        12           B   tau(  12) = (  -0.1432077   0.5777217   0.5686018  )
        13           B   tau(  13) = (  -0.2140407   0.7015223   0.5686018  )
        14           B   tau(  14) = (  -0.2853226   0.8250070   0.5686018  )
        15           B   tau(  15) = (   0.2861390   0.0818000   0.5686018  )
        16           B   tau(  16) = (   0.2146363   0.2045484   0.5686018  )
        17           B   tau(  17) = (   0.1433126   0.3278168   0.5686018  )
        18           B   tau(  18) = (   0.0709593   0.4547432   0.5686018  )
        19           B   tau(  19) = (  -0.0013993   0.5787538   0.5686018  )
        20           B   tau(  20) = (  -0.0714097   0.7020794   0.5686018  )
        21           B   tau(  21) = (  -0.1423717   0.8252572   0.5686018  )
        22           B   tau(  22) = (   0.4288212   0.0826803   0.5686018  )
        23           B   tau(  23) = (   0.3571606   0.2063107   0.5686018  )
        24           B   tau(  24) = (   0.2844537   0.3289595   0.5686018  )
        25           C2  tau(  25) = (   0.2152011   0.4537001   0.5686018  )
        26           B   tau(  26) = (   0.1421765   0.5780947   0.5686018  )
        27           B   tau(  27) = (   0.0718136   0.7022601   0.5686018  )
        28           B   tau(  28) = (   0.0003225   0.8257314   0.5686018  )
        29           B   tau(  29) = (   0.5714934   0.0828763   0.5686018  )
        30           B   tau(  30) = (   0.5000160   0.2066444   0.5686018  )
        31           B   tau(  31) = (   0.4283759   0.3306230   0.5686018  )
        32           B   tau(  32) = (   0.3578553   0.4560951   0.5686018  )
        33           B   tau(  33) = (   0.2882745   0.5788981   0.5686018  )
        34           B   tau(  34) = (   0.2145962   0.7017850   0.5686018  )
        35           B   tau(  35) = (   0.1431994   0.8257103   0.5686018  )
        36           B   tau(  36) = (   0.7143753   0.0829453   0.5686018  )
        37           B   tau(  37) = (   0.6428969   0.2067692   0.5686018  )
        38           B   tau(  38) = (   0.5715645   0.3305701   0.5686018  )
        39           B   tau(  39) = (   0.5004257   0.4544533   0.5686018  )
        40           B   tau(  40) = (   0.4306897   0.5787642   0.5686018  )
        41           B   tau(  41) = (   0.3582895   0.7026879   0.5686018  )
        42           B   tau(  42) = (   0.2862420   0.8257404   0.5686018  )
        43           B   tau(  43) = (   0.8574612   0.0828904   0.5686018  )
        44           B   tau(  44) = (   0.7858707   0.2067790   0.5686018  )
        45           B   tau(  45) = (   0.7144895   0.3305529   0.5686018  )
        46           B   tau(  46) = (   0.6433231   0.4542086   0.5686018  )
        47           B   tau(  47) = (   0.5727444   0.5782152   0.5686018  )
        48           B   tau(  48) = (   0.5010595   0.7023345   0.5686018  )
        49           B   tau(  49) = (   0.4293537   0.8258941   0.5686018  )
        50           N   tau(  50) = (   0.0714171   0.0409314   0.5686018  )
        51           N   tau(  51) = (  -0.0002596   0.1644087   0.5686018  )
        52           N   tau(  52) = (  -0.0715667   0.2886971   0.5686018  )
        53           N   tau(  53) = (  -0.1432565   0.4125053   0.5686018  )
        54           N   tau(  54) = (  -0.2143551   0.5362868   0.5686018  )
        55           N   tau(  55) = (  -0.2853350   0.6601302   0.5686018  )
        56           N   tau(  56) = (  -0.3567463   0.7839134   0.5686018  )
        57           N   tau(  57) = (   0.2145148   0.0408834   0.5686018  )
        58           N   tau(  58) = (   0.1428223   0.1640649   0.5686018  )
        59           N   tau(  59) = (   0.0711621   0.2875057   0.5686018  )
        60           N   tau(  60) = (  -0.0007659   0.4126144   0.5686018  )
        61           N   tau(  61) = (  -0.0720850   0.5365740   0.5686018  )
        62           N   tau(  62) = (  -0.1427022   0.6603350   0.5686018  )
        63           N   tau(  63) = (  -0.2138412   0.7839611   0.5686018  )
        64           N   tau(  64) = (   0.3575654   0.0411564   0.5686018  )
        65           N   tau(  65) = (   0.2863138   0.1642406   0.5686018  )
        66           N   tau(  66) = (   0.2149936   0.2864383   0.5686018  )
        67           C1  tau(  67) = (   0.1453140   0.4126123   0.5686018  )
        68           N   tau(  68) = (   0.0697719   0.5376629   0.5686018  )
        69           N   tau(  69) = (  -0.0002135   0.6610593   0.5686018  )
        70           N   tau(  70) = (  -0.0710998   0.7844123   0.5686018  )
        71           N   tau(  71) = (   0.5001291   0.0416935   0.5686018  )
        72           N   tau(  72) = (   0.4286511   0.1653853   0.5686018  )
        73           N   tau(  73) = (   0.3566572   0.2894589   0.5686018  )
        74           N   tau(  74) = (   0.2838387   0.4140714   0.5686018  )
        75           C3  tau(  75) = (   0.2158399   0.5347666   0.5686018  )
        76           N   tau(  76) = (   0.1427982   0.6612750   0.5686018  )
        77           N   tau(  77) = (   0.0716475   0.7847300   0.5686018  )
        78           N   tau(  78) = (   0.6429147   0.0417914   0.5686018  )
        79           N   tau(  79) = (   0.5713890   0.1655321   0.5686018  )
        80           N   tau(  80) = (   0.4996872   0.2894513   0.5686018  )
        81           N   tau(  81) = (   0.4281657   0.4133151   0.5686018  )
        82           N   tau(  82) = (   0.3599498   0.5375097   0.5686018  )
        83           N   tau(  83) = (   0.2871097   0.6615379   0.5686018  )
        84           N   tau(  84) = (   0.2147134   0.7845490   0.5686018  )
        85           N   tau(  85) = (   0.7859000   0.0417663   0.5686018  )
        86           N   tau(  86) = (   0.7143294   0.1655276   0.5686018  )
        87           N   tau(  87) = (   0.6428553   0.2893154   0.5686018  )
        88           N   tau(  88) = (   0.5716135   0.4130034   0.5686018  )
        89           N   tau(  89) = (   0.5014362   0.5368435   0.5686018  )
        90           N   tau(  90) = (   0.4298427   0.6611987   0.5686018  )
        91           N   tau(  91) = (   0.3580039   0.7849393   0.5686018  )
        92           N   tau(  92) = (   0.9288709   0.0416620   0.5686018  )
        93           N   tau(  93) = (   0.8572952   0.1654263   0.5686018  )
        94           N   tau(  94) = (   0.7857807   0.2892427   0.5686018  )
        95           N   tau(  95) = (   0.7144728   0.4129476   0.5686018  )
        96           N   tau(  96) = (   0.6436561   0.5366799   0.5686018  )
        97           N   tau(  97) = (   0.5723672   0.6607019   0.5686018  )
        98           N   tau(  98) = (   0.5007767   0.7846041   0.5686018  )

     number of k points=     1
                       cart. coord. in units 2pi/alat
        k(    1) = (   0.0000000   0.0000000   0.0000000), wk =   1.0000000

     Dense  grid:   319052 G-vectors     FFT dimensions: ( 108, 108, 125)

     Occupations read from input 

      Spin-up

        1.0000   1.0000   1.0000   1.0000   1.0000   1.0000   1.0000   1.0000
        1.0000   1.0000   1.0000   1.0000   1.0000   1.0000   1.0000   1.0000
        1.0000   1.0000   1.0000   1.0000   1.0000   1.0000   1.0000   1.0000
        1.0000   1.0000   1.0000   1.0000   1.0000   1.0000   1.0000   1.0000
        1.0000   1.0000   1.0000   1.0000   1.0000   1.0000   1.0000   1.0000
        1.0000   1.0000   1.0000   1.0000   1.0000   1.0000   1.0000   1.0000
        1.0000   1.0000   1.0000   1.0000   1.0000   1.0000   1.0000   1.0000
        1.0000   1.0000   1.0000   1.0000   1.0000   1.0000   1.0000   1.0000
        1.0000   1.0000   1.0000   1.0000   1.0000   1.0000   1.0000   1.0000
        1.0000   1.0000   1.0000   1.0000   1.0000   1.0000   1.0000   1.0000
        1.0000   1.0000   1.0000   1.0000   1.0000   1.0000   1.0000   1.0000
        1.0000   1.0000   1.0000   1.0000   1.0000   1.0000   1.0000   1.0000
        1.0000   1.0000   1.0000   1.0000   1.0000   1.0000   1.0000   1.0000
        1.0000   1.0000   1.0000   1.0000   1.0000   1.0000   1.0000   1.0000
        1.0000   1.0000   1.0000   1.0000   1.0000   1.0000   1.0000   1.0000
        1.0000   1.0000   1.0000   1.0000   1.0000   1.0000   1.0000   1.0000
        1.0000   1.0000   1.0000   1.0000   1.0000   1.0000   1.0000   1.0000
        1.0000   1.0000   1.0000   1.0000   1.0000   1.0000   1.0000   1.0000
        1.0000   1.0000   1.0000   1.0000   1.0000   1.0000   1.0000   1.0000
        1.0000   1.0000   1.0000   1.0000   1.0000   1.0000   1.0000   1.0000
        1.0000   1.0000   1.0000   1.0000   1.0000   1.0000   1.0000   1.0000
        1.0000   1.0000   1.0000   1.0000   1.0000   1.0000   1.0000   1.0000
        1.0000   1.0000   1.0000   1.0000   1.0000   1.0000   1.0000   1.0000
        1.0000   1.0000   1.0000   1.0000   1.0000   1.0000   1.0000   1.0000
        1.0000   1.0000   1.0000   1.0000   0.0000   0.0000   0.0000   0.0000
        0.0000   0.0000   0.0000   0.0000   0.0000   0.0000   0.0000   0.0000
        0.0000   0.0000   0.0000   0.0000   0.0000   0.0000   0.0000   0.0000
        0.0000   0.0000   0.0000   0.0000   0.0000   0.0000   0.0000   0.0000
        0.0000   0.0000   0.0000   0.0000   0.0000   0.0000   0.0000   0.0000
        0.0000   0.0000   0.0000   0.0000   0.0000   0.0000   0.0000   0.0000
        0.0000   0.0000   0.0000   0.0000   0.0000

      Spin-down

        1.0000   1.0000   1.0000   1.0000   1.0000   1.0000   1.0000   1.0000
        1.0000   1.0000   1.0000   1.0000   1.0000   1.0000   1.0000   1.0000
        1.0000   1.0000   1.0000   1.0000   1.0000   1.0000   1.0000   1.0000
        1.0000   1.0000   1.0000   1.0000   1.0000   1.0000   1.0000   1.0000
        1.0000   1.0000   1.0000   1.0000   1.0000   1.0000   1.0000   1.0000
        1.0000   1.0000   1.0000   1.0000   1.0000   1.0000   1.0000   1.0000
        1.0000   1.0000   1.0000   1.0000   1.0000   1.0000   1.0000   1.0000
        1.0000   1.0000   1.0000   1.0000   1.0000   1.0000   1.0000   1.0000
        1.0000   1.0000   1.0000   1.0000   1.0000   1.0000   1.0000   1.0000
        1.0000   1.0000   1.0000   1.0000   1.0000   1.0000   1.0000   1.0000
        1.0000   1.0000   1.0000   1.0000   1.0000   1.0000   1.0000   1.0000
        1.0000   1.0000   1.0000   1.0000   1.0000   1.0000   1.0000   1.0000
        1.0000   1.0000   1.0000   1.0000   1.0000   1.0000   1.0000   1.0000
        1.0000   1.0000   1.0000   1.0000   1.0000   1.0000   1.0000   1.0000
        1.0000   1.0000   1.0000   1.0000   1.0000   1.0000   1.0000   1.0000
        1.0000   1.0000   1.0000   1.0000   1.0000   1.0000   1.0000   1.0000
        1.0000   1.0000   1.0000   1.0000   1.0000   1.0000   1.0000   1.0000
        1.0000   1.0000   1.0000   1.0000   1.0000   1.0000   1.0000   1.0000
        1.0000   1.0000   1.0000   1.0000   1.0000   1.0000   1.0000   1.0000
        1.0000   1.0000   1.0000   1.0000   1.0000   1.0000   1.0000   1.0000
        1.0000   1.0000   1.0000   1.0000   1.0000   1.0000   1.0000   1.0000
        1.0000   1.0000   1.0000   1.0000   1.0000   1.0000   1.0000   1.0000
        1.0000   1.0000   1.0000   1.0000   1.0000   1.0000   1.0000   1.0000
        1.0000   1.0000   1.0000   1.0000   1.0000   1.0000   1.0000   1.0000
        1.0000   1.0000   0.0000   1.0000   0.0000   0.0000   0.0000   0.0000
        0.0000   0.0000   0.0000   0.0000   0.0000   0.0000   0.0000   0.0000
        0.0000   0.0000   0.0000   0.0000   0.0000   0.0000   0.0000   0.0000
        0.0000   0.0000   0.0000   0.0000   0.0000   0.0000   0.0000   0.0000
        0.0000   0.0000   0.0000   0.0000   0.0000   0.0000   0.0000   0.0000
        0.0000   0.0000   0.0000   0.0000   0.0000   0.0000   0.0000   0.0000
        0.0000   0.0000   0.0000   0.0000   0.0000

     Estimated max dynamical RAM per process >     157.01 MB

     Estimated total dynamical RAM >       9.81 GB
     Generating pointlists ...
     new r_m :   0.0336 (alat units)  1.1165 (a.u.) for type    1
     new r_m :   0.0327 (alat units)  1.0865 (a.u.) for type    2
     new r_m :   0.0334 (alat units)  1.1114 (a.u.) for type    3
     new r_m :   0.0327 (alat units)  1.0865 (a.u.) for type    4
     new r_m :   0.0334 (alat units)  1.1114 (a.u.) for type    5

     Check: negative core charge=   -0.000147

     Initial potential from superposition of free atoms

     starting charge  390.98597, renormalised to  391.00000

     negative rho (up, down):  7.587E-01 1.217E-03
     Starting wfcs are  392 randomized atomic wfcs

     total cpu time spent up to now is        4.7 secs

     Self-consistent Calculation

     iteration #  1     ecut=    25.73 Ry     beta= 0.70
     CG style diagonalization
     ethr =  1.00E-02,  avg # of iterations =  3.1

     negative rho (up, down):  2.371E+00 6.607E-03

     total cpu time spent up to now is       23.2 secs

     total energy              =   -1932.14558506 Ry
     Harris-Foulkes estimate   =   -1942.67201418 Ry
     estimated scf accuracy    <      17.17621574 Ry

     total magnetization       =     1.00 Bohr mag/cell
     absolute magnetization    =     1.96 Bohr mag/cell

     iteration #  2     ecut=    25.73 Ry     beta= 0.70
     CG style diagonalization
     ethr =  4.39E-03,  avg # of iterations =  4.0

     negative rho (up, down):  2.682E+00 4.540E-03

     total cpu time spent up to now is       41.0 secs

     total energy              =   -1935.60291292 Ry
     Harris-Foulkes estimate   =   -1940.44492760 Ry
     estimated scf accuracy    <       9.31533183 Ry

     total magnetization       =     1.00 Bohr mag/cell
     absolute magnetization    =     1.63 Bohr mag/cell

     iteration #  3     ecut=    25.73 Ry     beta= 0.70
     CG style diagonalization
     ethr =  2.38E-03,  avg # of iterations =  3.9

     negative rho (up, down):  2.974E+00 4.555E-03

     total cpu time spent up to now is       57.6 secs

     total energy              =   -1937.54118542 Ry
     Harris-Foulkes estimate   =   -1937.98547317 Ry
     estimated scf accuracy    <       0.78473683 Ry

     total magnetization       =     1.00 Bohr mag/cell
     absolute magnetization    =     1.35 Bohr mag/cell

     iteration #  4     ecut=    25.73 Ry     beta= 0.70
     CG style diagonalization
     ethr =  2.01E-04,  avg # of iterations =  7.9

     negative rho (up, down):  3.179E+00 4.406E-03

     total cpu time spent up to now is       90.8 secs

     total energy              =   -1937.68645681 Ry
     Harris-Foulkes estimate   =   -1937.95185309 Ry
     estimated scf accuracy    <       0.71773881 Ry

     total magnetization       =     1.00 Bohr mag/cell
     absolute magnetization    =     1.44 Bohr mag/cell

     iteration #  5     ecut=    25.73 Ry     beta= 0.70
     CG style diagonalization
     c_bands:  1 eigenvalues not converged
     ethr =  1.84E-04,  avg # of iterations =  3.3

     negative rho (up, down):  3.297E+00 4.848E-03
 
     Magnetic moment per site:
     atom:    1    charge:    0.8532    magn:   -0.0003    constr:    0.0000
     atom:    2    charge:    0.8484    magn:   -0.0002    constr:    0.0000
     atom:    3    charge:    0.8511    magn:   -0.0009    constr:    0.0000
     atom:    4    charge:    0.8516    magn:   -0.0005    constr:    0.0000
     atom:    5    charge:    0.8525    magn:   -0.0003    constr:    0.0000
     atom:    6    charge:    0.8518    magn:   -0.0001    constr:    0.0000
     atom:    7    charge:    0.8521    magn:    0.0000    constr:    0.0000
     atom:    8    charge:    0.8499    magn:   -0.0001    constr:    0.0000
     atom:    9    charge:    0.8518    magn:   -0.0007    constr:    0.0000
     atom:   10    charge:    0.8424    magn:   -0.0020    constr:    0.0000
     atom:   11    charge:    0.8511    magn:   -0.0020    constr:    0.0000
     atom:   12    charge:    0.8505    magn:   -0.0004    constr:    0.0000
     atom:   13    charge:    0.8473    magn:    0.0001    constr:    0.0000
     atom:   14    charge:    0.8518    magn:   -0.0000    constr:    0.0000
     atom:   15    charge:    0.8508    magn:    0.0001    constr:    0.0000
     atom:   16    charge:    0.8518    magn:   -0.0003    constr:    0.0000
     atom:   17    charge:    0.8650    magn:   -0.0057    constr:    0.0000
     atom:   18    charge:    0.8591    magn:   -0.0105    constr:    0.0000
     atom:   19    charge:    0.8552    magn:    0.0005    constr:    0.0000
     atom:   20    charge:    0.8498    magn:   -0.0002    constr:    0.0000
     atom:   21    charge:    0.8519    magn:   -0.0001    constr:    0.0000
     atom:   22    charge:    0.8467    magn:   -0.0000    constr:    0.0000
     atom:   23    charge:    0.8439    magn:   -0.0000    constr:    0.0000
     atom:   24    charge:    0.8392    magn:    0.0029    constr:    0.0000
     atom:   25    charge:    1.5405    magn:    0.0095    constr:    0.0000
     atom:   26    charge:    0.8588    magn:   -0.0031    constr:    0.0000
     atom:   27    charge:    0.8480    magn:   -0.0001    constr:    0.0000
     atom:   28    charge:    0.8493    magn:    0.0002    constr:    0.0000
     atom:   29    charge:    0.8469    magn:   -0.0000    constr:    0.0000
     atom:   30    charge:    0.8467    magn:    0.0006    constr:    0.0000
     atom:   31    charge:    0.8449    magn:    0.0025    constr:    0.0000
     atom:   32    charge:    0.8393    magn:    0.0028    constr:    0.0000
     atom:   33    charge:    0.8673    magn:    0.0002    constr:    0.0000
     atom:   34    charge:    0.8409    magn:    0.0002    constr:    0.0000
     atom:   35    charge:    0.8488    magn:   -0.0001    constr:    0.0000
     atom:   36    charge:    0.8461    magn:   -0.0000    constr:    0.0000
     atom:   37    charge:    0.8480    magn:    0.0002    constr:    0.0000
     atom:   38    charge:    0.8466    magn:    0.0005    constr:    0.0000
     atom:   39    charge:    0.8434    magn:    0.0000    constr:    0.0000
     atom:   40    charge:    0.8524    magn:   -0.0003    constr:    0.0000
     atom:   41    charge:    0.8494    magn:    0.0007    constr:    0.0000
     atom:   42    charge:    0.8472    magn:    0.0004    constr:    0.0000
     atom:   43    charge:    0.8449    magn:   -0.0000    constr:    0.0000
     atom:   44    charge:    0.8473    magn:   -0.0003    constr:    0.0000
     atom:   45    charge:    0.8478    magn:   -0.0003    constr:    0.0000
     atom:   46    charge:    0.8469    magn:   -0.0001    constr:    0.0000
     atom:   47    charge:    0.8508    magn:    0.0001    constr:    0.0000
     atom:   48    charge:    0.8494    magn:    0.0001    constr:    0.0000
     atom:   49    charge:    0.8524    magn:   -0.0001    constr:    0.0000
     atom:   50    charge:    2.6815    magn:    0.0008    constr:    0.0000
     atom:   51    charge:    2.6811    magn:    0.0024    constr:    0.0000
     atom:   52    charge:    2.6735    magn:    0.0013    constr:    0.0000
     atom:   53    charge:    2.6971    magn:    0.0045    constr:    0.0000
     atom:   54    charge:    2.6828    magn:    0.0023    constr:    0.0000
     atom:   55    charge:    2.6760    magn:   -0.0001    constr:    0.0000
     atom:   56    charge:    2.6715    magn:   -0.0002    constr:    0.0000
     atom:   57    charge:    2.6727    magn:   -0.0000    constr:    0.0000
     atom:   58    charge:    2.6705    magn:    0.0018    constr:    0.0000
     atom:   59    charge:    2.6709    magn:    0.0173    constr:    0.0000
     atom:   60    charge:    2.7032    magn:    0.0084    constr:    0.0000
     atom:   61    charge:    2.6664    magn:    0.0053    constr:    0.0000
     atom:   62    charge:    2.6763    magn:    0.0021    constr:    0.0000
     atom:   63    charge:    2.6777    magn:    0.0001    constr:    0.0000
     atom:   64    charge:    2.6837    magn:    0.0005    constr:    0.0000
     atom:   65    charge:    2.6689    magn:    0.0029    constr:    0.0000
     atom:   66    charge:    2.6718    magn:    0.0003    constr:    0.0000
     atom:   67    charge:    1.7096    magn:    0.0877    constr:    0.0000
     atom:   68    charge:    2.6649    magn:    0.0519    constr:    0.0000
     atom:   69    charge:    2.6750    magn:    0.0079    constr:    0.0000
     atom:   70    charge:    2.6722    magn:    0.0005    constr:    0.0000
     atom:   71    charge:    2.6747    magn:   -0.0000    constr:    0.0000
     atom:   72    charge:    2.6721    magn:   -0.0001    constr:    0.0000
     atom:   73    charge:    2.6656    magn:    0.0098    constr:    0.0000
     atom:   74    charge:    2.6031    magn:    0.1096    constr:    0.0000
     atom:   75    charge:    1.7088    magn:    0.0523    constr:    0.0000
     atom:   76    charge:    2.6753    magn:    0.0008    constr:    0.0000
     atom:   77    charge:    2.6747    magn:    0.0009    constr:    0.0000
     atom:   78    charge:    2.6787    magn:    0.0003    constr:    0.0000
     atom:   79    charge:    2.6723    magn:    0.0002    constr:    0.0000
     atom:   80    charge:    2.6772    magn:    0.0046    constr:    0.0000
     atom:   81    charge:    2.6656    magn:    0.0095    constr:    0.0000
     atom:   82    charge:    2.6855    magn:    0.0008    constr:    0.0000
     atom:   83    charge:    2.6534    magn:    0.0180    constr:    0.0000
     atom:   84    charge:    2.6725    magn:    0.0034    constr:    0.0000
     atom:   85    charge:    2.6698    magn:    0.0006    constr:    0.0000
     atom:   86    charge:    2.6694    magn:   -0.0001    constr:    0.0000
     atom:   87    charge:    2.6738    magn:    0.0003    constr:    0.0000
     atom:   88    charge:    2.6731    magn:   -0.0001    constr:    0.0000
     atom:   89    charge:    2.6696    magn:    0.0033    constr:    0.0000
     atom:   90    charge:    2.6700    magn:    0.0027    constr:    0.0000
     atom:   91    charge:    2.6712    magn:    0.0005    constr:    0.0000
     atom:   92    charge:    2.6800    magn:   -0.0003    constr:    0.0000
     atom:   93    charge:    2.6723    magn:    0.0008    constr:    0.0000
     atom:   94    charge:    2.6894    magn:    0.0020    constr:    0.0000
     atom:   95    charge:    2.6753    magn:   -0.0001    constr:    0.0000
     atom:   96    charge:    2.6863    magn:    0.0007    constr:    0.0000
     atom:   97    charge:    2.6732    magn:   -0.0001    constr:    0.0000
     atom:   98    charge:    2.6806    magn:    0.0005    constr:    0.0000

     total cpu time spent up to now is      104.2 secs

     End of self-consistent calculation

 ------ SPIN UP ------------


          k = 0.0000 0.0000 0.0000 ( 39929 PWs)   bands (ev):

   -22.0880 -21.8409 -21.7341 -21.7184 -21.6556 -21.6066 -21.4877 -21.1471
   -21.0025 -20.9605 -20.9246 -20.8874 -20.8383 -20.7382 -20.6148 -20.5723
   -20.5424 -20.4704 -20.3562 -19.8908 -19.8267 -19.7889 -19.7733 -19.7498
   -19.7262 -19.7018 -19.6581 -19.6368 -19.6031 -19.5189 -19.4897 -19.3771
   -19.3502 -19.3214 -19.2519 -19.1181 -19.0887 -18.9534 -18.9069 -18.8928
   -18.8712 -18.8232 -18.8081 -18.7420 -18.7219 -18.6749 -18.5899 -16.6129
   -14.7018 -13.1555 -13.0011 -12.9727 -12.9520 -12.9159 -12.8873 -12.8031
   -12.7348 -12.7179 -12.6673 -12.5776 -12.5169 -12.3250 -12.2986 -12.2595
   -12.2171 -12.1373 -12.0747 -11.7352 -11.6189 -11.5996 -11.5901 -11.5728
   -11.5457 -11.5153 -11.5020 -11.4543 -11.4363 -11.2153 -11.1410 -10.9997
   -10.8885 -10.8852 -10.8287 -10.7945 -10.6077 -10.2319 -10.1873 -10.1533
   -10.0869 -10.0219  -9.9399  -9.5859  -9.5129  -9.4892  -9.4823  -9.4777
    -9.4660  -9.3967  -9.2225  -9.1138  -9.1024  -9.0867  -9.0834  -9.0707
    -9.0583  -9.0579  -9.0432  -9.0325  -8.9914  -8.9876  -8.9749  -8.9705
    -8.9712  -8.9388  -8.9089  -8.8777  -8.8470  -8.7989  -8.7731  -8.7103
    -8.6363  -8.5651  -8.4124  -8.4079  -8.3319  -8.2091  -8.1863  -8.0376
    -7.9822  -7.9688  -7.9457  -7.9176  -7.8643  -7.8190  -7.7128  -7.6993
    -7.6852  -7.6629  -7.6538  -7.6161  -7.5632  -7.5630  -7.5371  -7.4740
    -7.4718  -7.4287  -7.4271  -7.4044  -7.3224  -7.3193  -7.2389  -7.2021
    -7.1568  -7.1410  -6.9635  -6.8953  -6.8112  -6.6065  -6.3687  -6.3368
    -6.3226  -6.2816  -6.2647  -6.2331  -6.2270  -6.1948  -6.1808  -6.1475
    -6.1516  -6.1056  -6.0798  -6.0543  -5.9229  -5.9184  -5.8962  -5.7764
    -5.6281  -5.5948  -5.5466  -5.4989  -5.3526  -5.2955  -4.9772  -4.9481
    -4.9215  -4.9034  -4.8786  -4.8411  -4.7948  -4.7590  -4.6429  -4.6205
    -4.5841  -4.5285  -4.1641  -3.0079  -0.6680  -0.2596  -0.0849  -0.0522
    -0.0453  -0.0318   0.0044   0.0337   0.1133   0.3372   0.3483   0.3049
     0.3676   0.3950   0.4251   0.4840   0.5584   0.5685   0.5759   0.5829
     0.5964   0.6094   0.6216   0.6244   0.6465   0.6663   0.6464   0.6803
     0.7945   0.8059   0.8509   0.8913   1.0248   0.9716   1.0820   1.1294
     1.1175   1.2060   1.2654   1.2989   1.2719   1.3018   1.3372   1.6632
     1.6850   1.2856   2.1803   2.2040   2.2395

 ------ SPIN DOWN ----------


          k = 0.0000 0.0000 0.0000 ( 39929 PWs)   bands (ev):

   -22.0718 -21.8000 -21.7181 -21.7091 -21.6442 -21.5836 -21.4723 -21.1132
   -20.9858 -20.9520 -20.9158 -20.8773 -20.8252 -20.7258 -20.6027 -20.5678
   -20.5270 -20.4417 -20.3438 -19.8654 -19.8118 -19.7764 -19.7606 -19.7437
   -19.7078 -19.6953 -19.6457 -19.6242 -19.5928 -19.5066 -19.4789 -19.3701
   -19.3344 -19.3117 -19.2372 -19.1072 -19.0793 -18.9430 -18.8947 -18.8656
   -18.8567 -18.8126 -18.7968 -18.7365 -18.7167 -18.6679 -18.5803 -16.4528
   -14.5176 -13.1294 -12.9939 -12.9657 -12.9475 -12.9120 -12.8842 -12.7976
   -12.7301 -12.7135 -12.6596 -12.5676 -12.5103 -12.3184 -12.2930 -12.2508
   -12.2129 -12.1259 -12.0670 -11.7214 -11.6112 -11.5957 -11.5825 -11.5680
   -11.5404 -11.5096 -11.4931 -11.4443 -11.4247 -11.1806 -11.1251 -10.9950
   -10.8848 -10.8806 -10.8200 -10.7853 -10.6002 -10.2231 -10.1796 -10.1447
   -10.0747 -10.0050  -9.9253  -9.5779  -9.5036  -9.4774  -9.4732  -9.4650
    -9.4588  -9.3908  -9.2127  -9.1062  -9.0974  -9.0812  -9.0789  -9.0658
    -9.0534  -9.0276  -9.0298  -9.0255  -8.9821  -8.9747  -8.9685  -8.9642
    -8.9517  -8.9349  -8.8958  -8.8641  -8.8073  -8.7873  -8.7628  -8.6569
    -8.6256  -8.5430  -8.4094  -8.4027  -8.3280  -8.1988  -8.1624  -7.9792
    -7.9547  -7.9500  -7.9281  -7.8994  -7.8419  -7.7867  -7.7064  -7.6933
    -7.6802  -7.6565  -7.6475  -7.6108  -7.5587  -7.5325  -7.5151  -7.4702
    -7.4467  -7.4189  -7.4156  -7.3748  -7.3116  -7.2606  -7.2111  -7.1972
    -7.1510  -7.1360  -6.9403  -6.8631  -6.7925  -6.5870  -6.3604  -6.3320
    -6.2725  -6.2637  -6.2342  -6.2094  -6.1952  -6.1803  -6.1457  -6.1322
    -6.1270  -6.0825  -6.0535  -6.0250  -5.9050  -5.8812  -5.8725  -5.7484
    -5.6003  -5.5658  -5.5241  -5.4748  -5.3088  -5.2653  -4.9027  -4.8972
    -4.8589  -4.8353  -4.8402  -4.8216  -4.7672  -4.7364  -4.6315  -4.6043
    -4.5690  -4.5104  -3.8975  -2.6932  -0.6678  -0.2613  -0.0863  -0.0518
    -0.0473  -0.0326   0.0044   0.0367   0.1051   0.2849   0.3388   0.3528
     0.3673   0.3941   0.4215   0.4908   0.5622   0.5710   0.5739   0.5926
     0.6092   0.6188   0.6196   0.6326   0.6455   0.6643   0.6555   0.6893
     0.7951   0.8123   0.8584   0.8954   1.0033   1.0374   1.0881   1.1372
     1.1523   1.2110   1.2936   1.3087   1.2883   1.2771   1.3117   1.3211
     1.4469   2.1997   1.6586   2.2361   2.2878

     highest occupied, lowest unoccupied level (ev):    -3.0079   -3.8975

!    total energy              =   -1937.79369484 Ry
     Harris-Foulkes estimate   =   -1937.83084868 Ry
     estimated scf accuracy    <       0.05134952 Ry

     total magnetization       =     1.00 Bohr mag/cell
     absolute magnetization    =     1.27 Bohr mag/cell

     convergence has been achieved in   5 iterations

     Using ACE for calculation of exact exchange

     EXX grid:   319052 G-vectors     FFT dimensions: ( 108, 108, 125)

     negative rho (up, down):  3.297E+00 4.848E-03

     EXX: now go back to refine exchange calculation

     total cpu time spent up to now is     5014.9 secs

     Self-consistent Calculation

     iteration #  1     ecut=    25.73 Ry     beta= 0.70
     CG style diagonalization
     ethr =  1.84E-04,  avg # of iterations = 16.7

     negative rho (up, down):  3.383E+00 5.475E-03

     total cpu time spent up to now is     5109.9 secs

     total energy              =   -1722.64175652 Ry
     Harris-Foulkes estimate   =   -1722.76293560 Ry
     estimated scf accuracy    <       0.15365047 Ry

     total magnetization       =     1.00 Bohr mag/cell
     absolute magnetization    =     1.35 Bohr mag/cell

     iteration #  2     ecut=    25.73 Ry     beta= 0.70
     CG style diagonalization
     ethr =  3.93E-05,  avg # of iterations =  8.9

     negative rho (up, down):  3.376E+00 5.379E-03

     total cpu time spent up to now is     5152.8 secs

     total energy              =   -1713.30049836 Ry
     Harris-Foulkes estimate   =   -1713.46097856 Ry
     estimated scf accuracy    <       0.42150714 Ry

     total magnetization       =     1.00 Bohr mag/cell
     absolute magnetization    =     1.34 Bohr mag/cell

     iteration #  3     ecut=    25.73 Ry     beta= 0.70
     CG style diagonalization
     ethr =  3.93E-05,  avg # of iterations =  3.7

     negative rho (up, down):  3.373E+00 5.411E-03

     total cpu time spent up to now is     5170.4 secs

     total energy              =   -1713.28308173 Ry
     Harris-Foulkes estimate   =   -1713.33202118 Ry
     estimated scf accuracy    <       0.08074879 Ry

     total magnetization       =     1.00 Bohr mag/cell
     absolute magnetization    =     1.34 Bohr mag/cell

     iteration #  4     ecut=    25.73 Ry     beta= 0.70
     CG style diagonalization
     ethr =  2.07E-05,  avg # of iterations =  3.9

     negative rho (up, down):  3.374E+00 5.430E-03
 
     Magnetic moment per site:
     atom:    1    charge:    0.8279    magn:   -0.0002    constr:    0.0000
     atom:    2    charge:    0.8230    magn:    0.0003    constr:    0.0000
     atom:    3    charge:    0.8233    magn:   -0.0004    constr:    0.0000
     atom:    4    charge:    0.8249    magn:   -0.0003    constr:    0.0000
     atom:    5    charge:    0.8272    magn:   -0.0002    constr:    0.0000
     atom:    6    charge:    0.8272    magn:   -0.0000    constr:    0.0000
     atom:    7    charge:    0.8276    magn:    0.0000    constr:    0.0000
     atom:    8    charge:    0.8249    magn:   -0.0000    constr:    0.0000
     atom:    9    charge:    0.8264    magn:   -0.0003    constr:    0.0000
     atom:   10    charge:    0.8145    magn:    0.0004    constr:    0.0000
     atom:   11    charge:    0.8233    magn:   -0.0015    constr:    0.0000
     atom:   12    charge:    0.8246    magn:   -0.0003    constr:    0.0000
     atom:   13    charge:    0.8222    magn:    0.0000    constr:    0.0000
     atom:   14    charge:    0.8272    magn:   -0.0000    constr:    0.0000
     atom:   15    charge:    0.8268    magn:   -0.0000    constr:    0.0000
     atom:   16    charge:    0.8293    magn:   -0.0006    constr:    0.0000
     atom:   17    charge:    0.8387    magn:    0.0013    constr:    0.0000
     atom:   18    charge:    0.8314    magn:   -0.0063    constr:    0.0000
     atom:   19    charge:    0.8323    magn:   -0.0015    constr:    0.0000
     atom:   20    charge:    0.8246    magn:   -0.0005    constr:    0.0000
     atom:   21    charge:    0.8272    magn:   -0.0000    constr:    0.0000
     atom:   22    charge:    0.8224    magn:   -0.0001    constr:    0.0000
     atom:   23    charge:    0.8202    magn:   -0.0001    constr:    0.0000
     atom:   24    charge:    0.8157    magn:    0.0019    constr:    0.0000
     atom:   25    charge:    1.5352    magn:    0.0068    constr:    0.0000
     atom:   26    charge:    0.8333    magn:   -0.0058    constr:    0.0000
     atom:   27    charge:    0.8235    magn:   -0.0000    constr:    0.0000
     atom:   28    charge:    0.8249    magn:    0.0000    constr:    0.0000
     atom:   29    charge:    0.8221    magn:    0.0000    constr:    0.0000
     atom:   30    charge:    0.8223    magn:    0.0004    constr:    0.0000
     atom:   31    charge:    0.8205    magn:    0.0013    constr:    0.0000
     atom:   32    charge:    0.8168    magn:   -0.0013    constr:    0.0000
     atom:   33    charge:    0.8404    magn:   -0.0042    constr:    0.0000
     atom:   34    charge:    0.8154    magn:   -0.0015    constr:    0.0000
     atom:   35    charge:    0.8235    magn:   -0.0002    constr:    0.0000
     atom:   36    charge:    0.8216    magn:   -0.0001    constr:    0.0000
     atom:   37    charge:    0.8234    magn:    0.0001    constr:    0.0000
     atom:   38    charge:    0.8224    magn:    0.0001    constr:    0.0000
     atom:   39    charge:    0.8203    magn:   -0.0006    constr:    0.0000
     atom:   40    charge:    0.8295    magn:   -0.0003    constr:    0.0000
     atom:   41    charge:    0.8263    magn:   -0.0005    constr:    0.0000
     atom:   42    charge:    0.8232    magn:   -0.0001    constr:    0.0000
     atom:   43    charge:    0.8199    magn:    0.0000    constr:    0.0000
     atom:   44    charge:    0.8215    magn:   -0.0000    constr:    0.0000
     atom:   45    charge:    0.8220    magn:   -0.0002    constr:    0.0000
     atom:   46    charge:    0.8224    magn:   -0.0000    constr:    0.0000
     atom:   47    charge:    0.8268    magn:   -0.0000    constr:    0.0000
     atom:   48    charge:    0.8249    magn:   -0.0002    constr:    0.0000
     atom:   49    charge:    0.8280    magn:   -0.0001    constr:    0.0000
     atom:   50    charge:    2.6545    magn:    0.0006    constr:    0.0000
     atom:   51    charge:    2.6473    magn:    0.0013    constr:    0.0000
     atom:   52    charge:    2.6470    magn:    0.0044    constr:    0.0000
     atom:   53    charge:    2.6496    magn:    0.0021    constr:    0.0000
     atom:   54    charge:    2.6474    magn:    0.0014    constr:    0.0000
     atom:   55    charge:    2.6499    magn:   -0.0000    constr:    0.0000
     atom:   56    charge:    2.6453    magn:    0.0000    constr:    0.0000
     atom:   57    charge:    2.6470    magn:    0.0002    constr:    0.0000
     atom:   58    charge:    2.6464    magn:    0.0039    constr:    0.0000
     atom:   59    charge:    2.6419    magn:    0.0237    constr:    0.0000
     atom:   60    charge:    2.6464    magn:    0.0078    constr:    0.0000
     atom:   61    charge:    2.6469    magn:    0.0085    constr:    0.0000
     atom:   62    charge:    2.6456    magn:    0.0020    constr:    0.0000
     atom:   63    charge:    2.6504    magn:    0.0001    constr:    0.0000
     atom:   64    charge:    2.6583    magn:    0.0002    constr:    0.0000
     atom:   65    charge:    2.6463    magn:    0.0016    constr:    0.0000
     atom:   66    charge:    2.6502    magn:    0.0005    constr:    0.0000
     atom:   67    charge:    1.6777    magn:    0.1382    constr:    0.0000
     atom:   68    charge:    2.6717    magn:    0.0542    constr:    0.0000
     atom:   69    charge:    2.6484    magn:    0.0046    constr:    0.0000
     atom:   70    charge:    2.6460    magn:    0.0002    constr:    0.0000
     atom:   71    charge:    2.6480    magn:    0.0001    constr:    0.0000
     atom:   72    charge:    2.6470    magn:    0.0001    constr:    0.0000
     atom:   73    charge:    2.6380    magn:    0.0123    constr:    0.0000
     atom:   74    charge:    2.5647    magn:    0.1184    constr:    0.0000
     atom:   75    charge:    1.6989    magn:    0.0137    constr:    0.0000
     atom:   76    charge:    2.6471    magn:    0.0022    constr:    0.0000
     atom:   77    charge:    2.6463    magn:    0.0011    constr:    0.0000
     atom:   78    charge:    2.6524    magn:    0.0000    constr:    0.0000
     atom:   79    charge:    2.6461    magn:    0.0002    constr:    0.0000
     atom:   80    charge:    2.6535    magn:    0.0036    constr:    0.0000
     atom:   81    charge:    2.6393    magn:    0.0061    constr:    0.0000
     atom:   82    charge:    2.6528    magn:    0.0054    constr:    0.0000
     atom:   83    charge:    2.6407    magn:    0.0091    constr:    0.0000
     atom:   84    charge:    2.6470    magn:    0.0011    constr:    0.0000
     atom:   85    charge:    2.6422    magn:    0.0002    constr:    0.0000
     atom:   86    charge:    2.6418    magn:    0.0000    constr:    0.0000
     atom:   87    charge:    2.6459    magn:    0.0004    constr:    0.0000
     atom:   88    charge:    2.6465    magn:   -0.0001    constr:    0.0000
     atom:   89    charge:    2.6457    magn:    0.0033    constr:    0.0000
     atom:   90    charge:    2.6464    magn:    0.0007    constr:    0.0000
     atom:   91    charge:    2.6452    magn:    0.0003    constr:    0.0000
     atom:   92    charge:    2.6530    magn:   -0.0001    constr:    0.0000
     atom:   93    charge:    2.6422    magn:    0.0006    constr:    0.0000
     atom:   94    charge:    2.6537    magn:    0.0011    constr:    0.0000
     atom:   95    charge:    2.6475    magn:    0.0001    constr:    0.0000
     atom:   96    charge:    2.6580    magn:    0.0005    constr:    0.0000
     atom:   97    charge:    2.6470    magn:   -0.0000    constr:    0.0000
     atom:   98    charge:    2.6543    magn:    0.0002    constr:    0.0000

     total cpu time spent up to now is     5189.0 secs

     End of self-consistent calculation

 ------ SPIN UP ------------


          k = 0.0000 0.0000 0.0000 ( 39929 PWs)   bands (ev):

   -25.5301 -25.1879 -24.9167 -24.8874 -24.8499 -24.8163 -24.7536 -24.3784
   -24.1093 -24.0892 -24.0478 -23.9743 -23.9652 -23.8273 -23.7000 -23.6861
   -23.6708 -23.5536 -23.4787 -22.9877 -22.7588 -22.7538 -22.7250 -22.7092
   -22.6886 -22.6746 -22.6696 -22.6421 -22.6118 -22.4893 -22.4499 -22.3282
   -22.2538 -22.2422 -22.2253 -22.0532 -22.0473 -21.8240 -21.8011 -21.7906
   -21.7575 -21.6955 -21.6506 -21.6043 -21.5875 -21.5591 -21.5127 -20.0869
   -17.7631 -15.7152 -15.2209 -15.2025 -15.1713 -15.1293 -15.1211 -15.0224
   -14.9698 -14.9424 -14.9021 -14.8625 -14.8002 -14.5465 -14.4627 -14.4272
   -14.3897 -14.3579 -14.3126 -13.8784 -13.7467 -13.6953 -13.6806 -13.6743
   -13.6525 -13.6288 -13.6171 -13.6002 -13.5755 -13.3706 -13.3201 -13.1218
   -12.8924 -12.8806 -12.8518 -12.8226 -12.6708 -12.2103 -12.1546 -12.1303
   -12.0539 -11.9964 -11.9339 -11.4852 -11.4142 -11.4143 -11.3762 -11.3438
   -11.3342 -11.2518 -11.1002 -10.9978 -10.9742 -10.9277 -10.9108 -10.9017
   -10.8925 -10.8818 -10.8793 -10.8570 -10.8201 -10.8116 -10.8023 -10.7967
   -10.7803 -10.7723 -10.7402 -10.7376 -10.7200 -10.6693 -10.6243 -10.6235
   -10.4782 -10.4361 -10.1790 -10.1378 -10.1034 -10.0620 -10.0160  -9.8746
    -9.7526  -9.6630  -9.6392  -9.5971  -9.5514  -9.5042  -9.4552  -9.3809
    -9.3469  -9.3249  -9.2969  -9.2696  -9.2366  -9.2228  -9.2210  -9.1771
    -9.0928  -9.0882  -9.0781  -9.0756  -9.0505  -8.9898  -8.8743  -8.8303
    -8.8090  -8.7504  -8.7074  -8.6002  -8.4244  -8.2711  -7.9287  -7.9132
    -7.8816  -7.8567  -7.7546  -7.6571  -7.6451  -7.6219  -7.5956  -7.5862
    -7.5722  -7.5575  -7.5373  -7.4903  -7.4897  -7.4223  -7.3407  -7.2821
    -7.0139  -6.8943  -6.8897  -6.8801  -6.8387  -6.7794  -6.6588  -6.5401
    -6.1942  -6.1575  -6.1483  -6.1063  -6.0217  -6.0016  -5.8731  -5.8352
    -5.8149  -5.7869  -5.7274  -4.2288  -0.2878   0.0505   0.2691   0.3366
     0.3421   0.3620   0.3668   0.3844   0.4152   0.6290   0.6731   0.6759
     0.6956   0.7045   0.7232   0.8320   0.9011   0.9097   0.9278   0.9311
     0.9480   0.9787   1.3637   1.5536   1.5980   1.6237   1.6500   1.6535
     1.6587   1.6619   1.6697   1.6796   1.7108   1.7130   1.7446   1.7618
     1.8752   1.8625   1.9131   1.9432   1.9599   1.9747   1.9839   1.9895
     1.9946   1.9985   2.0043   2.0049   2.0507

 ------ SPIN DOWN ----------


          k = 0.0000 0.0000 0.0000 ( 39929 PWs)   bands (ev):

   -25.3734 -25.1230 -24.9106 -24.8788 -24.8414 -24.7860 -24.7370 -24.3226
   -24.0931 -24.0766 -24.0427 -23.9590 -23.9519 -23.8151 -23.6894 -23.6689
   -23.6535 -23.5217 -23.4674 -22.9413 -22.7459 -22.7399 -22.7104 -22.7014
   -22.6820 -22.6660 -22.6542 -22.6281 -22.5999 -22.4711 -22.4373 -22.3137
   -22.2462 -22.2326 -22.2089 -22.0401 -22.0282 -21.8114 -21.7885 -21.7779
   -21.7447 -21.6878 -21.6391 -21.5949 -21.5790 -21.5495 -21.4949 -19.7172
   -17.5468 -15.6551 -15.2153 -15.1952 -15.1682 -15.1266 -15.1176 -15.0188
   -14.9639 -14.9361 -14.8970 -14.8515 -14.7924 -14.5371 -14.4527 -14.4231
   -14.3856 -14.3457 -14.3012 -13.8598 -13.7287 -13.6912 -13.6739 -13.6619
   -13.6492 -13.6242 -13.6142 -13.5918 -13.5621 -13.3391 -13.2959 -13.1147
   -12.8905 -12.8773 -12.8429 -12.8150 -12.6641 -12.1935 -12.1462 -12.1217
   -12.0376 -11.9768 -11.9191 -11.4753 -11.3983 -11.3666 -11.3370 -11.3348
   -11.3311 -11.2483 -11.0857 -10.9596 -10.9159 -10.9055 -10.8966 -10.8884
   -10.8788 -10.8742 -10.8537 -10.8174 -10.8168 -10.8030 -10.7945 -10.7857
   -10.7724 -10.7393 -10.7314 -10.7239 -10.6501 -10.6433 -10.6118 -10.5029
   -10.4539 -10.4288 -10.1758 -10.1320 -10.1007 -10.0474 -10.0032  -9.7393
    -9.6430  -9.6145  -9.6039  -9.5819  -9.4863  -9.4521  -9.4430  -9.3733
    -9.3404  -9.3202  -9.2955  -9.2683  -9.2340  -9.2175  -9.1727  -9.1125
    -9.0789  -9.0669  -9.0594  -9.0352  -8.9996  -8.8806  -8.8193  -8.8149
    -8.8027  -8.7437  -8.6856  -8.5785  -8.4027  -8.2585  -7.9075  -7.8714
    -7.8540  -7.7395  -7.6943  -7.6165  -7.6010  -7.5769  -7.5702  -7.5573
    -7.5392  -7.5046  -7.4841  -7.4652  -7.4378  -7.3281  -7.2585  -7.2404
    -6.9477  -6.8673  -6.8554  -6.8199  -6.7852  -6.6229  -6.5920  -6.4957
    -6.1298  -6.1053  -6.0925  -6.0576  -5.9721  -5.9218  -5.8104  -5.7993
    -5.7667  -5.7207  -4.1633  -3.4968  -0.2882   0.0511   0.2689   0.3359
     0.3417   0.3615   0.3666   0.3836   0.4144   0.6634   0.6756   0.6868
     0.6959   0.7098   0.7274   0.9010   0.9091   0.9273   0.9308   0.9474
     0.9783   1.0062   1.3687   1.5992   1.6207   1.6520   1.6558   1.6448
     1.6650   1.6557   1.6792   1.6703   1.7077   1.7132   1.7453   1.7703
     1.8740   1.8928   1.9463   1.9565   1.9668   1.9794   1.9839   1.9884
     1.9990   2.0018   2.0115   2.0164   2.0315

     highest occupied, lowest unoccupied level (ev):    -4.2288   -4.1633

!    total energy              =   -1713.29449372 Ry
     Harris-Foulkes estimate   =   -1713.30584554 Ry
     estimated scf accuracy    <       0.01311522 Ry

     total magnetization       =     1.00 Bohr mag/cell
     absolute magnetization    =     1.35 Bohr mag/cell

     convergence has been achieved in   4 iterations

     Using ACE for calculation of exact exchange

!!   total energy              =   -1713.36455484 Ry
     Harris-Foulkes estimate   =   -1713.37590666 Ry
     est. exchange err (dexx)  =       0.07006112 Ry
     - averaged Fock potential =     193.80011425 Ry
     + Fock energy (ACE)       =     -96.99455729 Ry

     EXX self-consistency reached

     Writing output data file C2Cn.save/
 
     init_run     :      2.09s CPU      2.19s WALL (       1 calls)
     electrons    :    270.45s CPU    273.93s WALL (       2 calls)

     Called by init_run:
     wfcinit      :      0.86s CPU      0.92s WALL (       1 calls)
     potinit      :      0.51s CPU      0.53s WALL (       1 calls)
     hinit0       :      0.47s CPU      0.48s WALL (       1 calls)

     Called by electrons:
     c_bands      :    261.62s CPU    264.61s WALL (       9 calls)
     sum_band     :      2.37s CPU      2.46s WALL (       9 calls)
     v_of_rho     :      1.06s CPU      1.10s WALL (      11 calls)
     newd         :      0.36s CPU      0.39s WALL (      10 calls)
     PAW_pot      :      3.01s CPU      3.04s WALL (      11 calls)
     mix_rho      :      0.05s CPU      0.06s WALL (       9 calls)

     Called by c_bands:
     init_us_2    :      2.99s CPU      3.05s WALL (    1022 calls)
     rcgdiagg     :    256.32s CPU    259.21s WALL (      24 calls)
     wfcrot       :      5.97s CPU      6.11s WALL (      22 calls)

     Called by sum_band:
     sum_band:bec :      0.01s CPU      0.01s WALL (      18 calls)
     addusdens    :      0.27s CPU      0.31s WALL (       9 calls)

     Called by *cgdiagg:
     h_psi        :    128.37s CPU    130.02s WALL (   22177 calls)
     s_psi        :     46.86s CPU     47.51s WALL (   44332 calls)
     rdiaghg      :      0.40s CPU      0.41s WALL (      22 calls)

     Called by h_psi:
     h_psi:pot    :    106.57s CPU    108.00s WALL (   22177 calls)
     h_psi:calbec :     45.47s CPU     45.92s WALL (   22177 calls)
     vloc_psi     :     36.45s CPU     37.20s WALL (   22177 calls)
     add_vuspsi   :     24.40s CPU     24.68s WALL (   22177 calls)
     hs_1psi      :    147.93s CPU    149.80s WALL (   22155 calls)
     s_1psi       :     60.93s CPU     61.46s WALL (   22155 calls)

     General routines
     calbec       :     99.98s CPU    100.94s WALL (   58115 calls)
     fft          :      0.72s CPU      0.73s WALL (     176 calls)
     ffts         :      0.07s CPU      0.07s WALL (      18 calls)
     fftw         :     35.25s CPU     35.94s WALL (   52228 calls)
     fftc         :    691.89s CPU    695.61s WALL (  192080 calls)
     fftcw        :      1.51s CPU      1.53s WALL (    1964 calls)
 
     Parallel routines
     fft_scatt_xy :      8.19s CPU      8.26s WALL (  246466 calls)
     fft_scatt_yz :    581.28s CPU    584.53s WALL (  246466 calls)

     EXX routines
     exx_grid     :      0.00s CPU      0.00s WALL (       1 calls)
     exxinit      :      2.16s CPU      2.21s WALL (       2 calls)
     vexx         :   9759.51s CPU   9794.49s WALL (       4 calls)
     matcalc      :     16.61s CPU     16.78s WALL (   13761 calls)
     aceupdate    :      0.02s CPU      0.02s WALL (       4 calls)
     vexxace      :     21.72s CPU     21.94s WALL (   13751 calls)
     aceinit      :   9759.57s CPU   9794.55s WALL (       4 calls)

     EXX+US  routines
     becxx        :      0.00s CPU      0.00s WALL (       2 calls)
     addusxx      :   4503.27s CPU   4516.82s WALL (  192080 calls)
     newdxx       :   4242.34s CPU   4258.45s WALL (  192080 calls)
     qvan_init    :      0.04s CPU      0.06s WALL (       4 calls)
     nlxx_pot     :      3.95s CPU      4.01s WALL (     980 calls)

     EXX+PAW routines
     PAW_newdxx   :    285.83s CPU    287.50s WALL (  192080 calls)
 
     PWSCF        :      2h47m CPU      2h47m WALL

 
   This run was terminated on:   2:24:26  31Jul2021            

=------------------------------------------------------------------------------=
   JOB DONE.
=------------------------------------------------------------------------------=
