
     Program PWSCF v.6.4.1 starts on  1Jul2021 at 17:23:50 

     This program is part of the open-source Quantum ESPRESSO suite
     for quantum simulation of materials; please cite
         "P. Giannozzi et al., J. Phys.:Condens. Matter 21 395502 (2009);
         "P. Giannozzi et al., J. Phys.:Condens. Matter 29 465901 (2017);
          URL http://www.quantum-espresso.org", 
     in publications or presentations arising from this work. More details at
     http://www.quantum-espresso.org/quote

     Parallel version (MPI), running on    64 processors

     MPI processes distributed on     2 nodes
     R & G space division:  proc/nbgrp/npool/nimage =      64
     Waiting for input...
     Reading input from standard input

     Current dimensions of program PWSCF are:
     Max number of different atomic species (ntypx) = 10
     Max number of k-points (npk) =  40000
     Max angular momentum in pseudopotentials (lmaxx) =  3
               file N.pbe-n-kjpaw_psl.1.0.0.UPF: wavefunction(s)  2S renormalized
               file C.pbe-n-kjpaw_psl.1.0.0.UPF: wavefunction(s)  2S 2P renormalized
               file C.pbe-n-kjpaw_psl.1.0.0.UPF: wavefunction(s)  2S 2P renormalized
               file C.pbe-n-kjpaw_psl.1.0.0.UPF: wavefunction(s)  2S 2P renormalized

     --------------------------------------------
     Parameters for DFT-D3 Dispersion Correction:
     --------------------------------------------
       Reference C6 values for interpolation: 

         atom   Coordination number   C6
         B          0.000           214.36
         B          0.971           150.74
         B          1.944           106.23
         B          2.913            62.89
         B          4.586            56.06
         C1         0.000            98.23
         C1         0.987            86.49
         C1         1.998            58.72
         C1         2.999            51.56
         C1         3.984            36.41
         C2         0.000            98.23
         C2         0.987            86.49
         C2         1.998            58.72
         C2         2.999            51.56
         C2         3.984            36.41
         C3         0.000            98.23
         C3         0.987            86.49
         C3         1.998            58.72
         C3         2.999            51.56
         C3         3.984            36.41
         N          0.000            50.54
         N          0.994            44.25
         N          2.014            39.35
         N          2.990            31.16

       Values used:

         atom   Coordination number  R0_AB[au]  C6      C8
         B          3.326            3.039     62.90   2506.23
         B          3.317            3.039     62.90   2506.43
         B          3.318            3.039     62.90   2506.42
         B          3.323            3.039     62.90   2506.30
         B          3.325            3.039     62.90   2506.26
         B          3.323            3.039     62.90   2506.29
         B          3.326            3.039     62.90   2506.23
         B          3.323            3.039     62.90   2506.29
         B          3.322            3.039     62.90   2506.32
         B          3.307            3.039     62.91   2506.66
         B          3.318            3.039     62.90   2506.42
         B          3.324            3.039     62.90   2506.28
         B          3.322            3.039     62.90   2506.31
         B          3.323            3.039     62.90   2506.29
         B          3.323            3.039     62.90   2506.30
         B          3.324            3.039     62.90   2506.27
         B          3.294            3.039     62.92   2506.95
         B          3.281            3.039     62.92   2507.26
         B          3.319            3.039     62.90   2506.40
         B          3.324            3.039     62.90   2506.28
         B          3.325            3.039     62.90   2506.26
         B          3.322            3.039     62.90   2506.33
         B          3.318            3.039     62.90   2506.43
         B          3.306            3.039     62.91   2506.68
         C2         3.240            2.750     49.56   1433.29
         B          3.281            3.039     62.92   2507.26
         B          3.318            3.039     62.90   2506.42
         B          3.323            3.039     62.90   2506.30
         B          3.320            3.039     62.90   2506.38
         B          3.317            3.039     62.90   2506.44
         B          3.308            3.039     62.91   2506.64
         B          3.306            3.039     62.91   2506.68
         B          3.294            3.039     62.92   2506.95
         B          3.307            3.039     62.91   2506.66
         B          3.318            3.039     62.90   2506.42
         B          3.316            3.039     62.90   2506.46
         B          3.317            3.039     62.90   2506.45
         B          3.317            3.039     62.90   2506.44
         B          3.318            3.039     62.90   2506.43
         B          3.324            3.039     62.90   2506.27
         B          3.322            3.039     62.90   2506.32
         B          3.317            3.039     62.90   2506.43
         B          3.319            3.039     62.90   2506.39
         B          3.316            3.039     62.90   2506.46
         B          3.320            3.039     62.90   2506.38
         B          3.322            3.039     62.90   2506.33
         B          3.323            3.039     62.90   2506.30
         B          3.323            3.039     62.90   2506.29
         B          3.326            3.039     62.90   2506.23
         N          3.129            2.478     31.22    688.74
         N          3.129            2.478     31.22    688.75
         N          3.126            2.478     31.22    688.78
         N          3.128            2.478     31.22    688.76
         N          3.129            2.478     31.22    688.74
         N          3.128            2.478     31.22    688.75
         N          3.128            2.478     31.22    688.75
         N          3.128            2.478     31.22    688.75
         N          3.129            2.478     31.22    688.75
         N          3.125            2.478     31.22    688.78
         N          3.123            2.478     31.22    688.80
         N          3.129            2.478     31.22    688.74
         N          3.128            2.478     31.22    688.75
         N          3.128            2.478     31.22    688.75
         N          3.129            2.478     31.22    688.74
         N          3.129            2.478     31.22    688.75
         N          3.130            2.478     31.22    688.73
         C1         3.177            2.750     50.30   1454.62
         N          3.127            2.478     31.22    688.77
         N          3.129            2.478     31.22    688.74
         N          3.129            2.478     31.22    688.74
         N          3.128            2.478     31.22    688.75
         N          3.127            2.478     31.22    688.77
         N          3.124            2.478     31.22    688.80
         N          3.144            2.478     31.21    688.61
         C3         3.177            2.750     50.30   1454.62
         N          3.123            2.478     31.22    688.80
         N          3.128            2.478     31.22    688.76
         N          3.127            2.478     31.22    688.77
         N          3.127            2.478     31.22    688.77
         N          3.125            2.478     31.22    688.78
         N          3.124            2.478     31.22    688.80
         N          3.130            2.478     31.22    688.73
         N          3.125            2.478     31.22    688.78
         N          3.126            2.478     31.22    688.78
         N          3.127            2.478     31.22    688.77
         N          3.126            2.478     31.22    688.77
         N          3.127            2.478     31.22    688.77
         N          3.127            2.478     31.22    688.77
         N          3.129            2.478     31.22    688.75
         N          3.129            2.478     31.22    688.75
         N          3.129            2.478     31.22    688.75
         N          3.129            2.478     31.22    688.74
         N          3.127            2.478     31.22    688.77
         N          3.127            2.478     31.22    688.77
         N          3.128            2.478     31.22    688.75
         N          3.129            2.478     31.22    688.74
         N          3.128            2.478     31.22    688.75
         N          3.129            2.478     31.22    688.74

         Molecular C6 ( Ry / a.u.^6 ) =    437746.66


     gamma-point specific algorithms are used

     Subspace diagonalization in iterative solution of the eigenvalue problem:
     one sub-group per band group will be used
     scalapack distributed-memory algorithm (size of sub-group:  5*  5 procs)

     Message from routine setup:
     DEPRECATED: symmetry with ibrav=0, use correct ibrav instead
 
     Parallelization info
     --------------------
     sticks:   dense  smooth     PW     G-vecs:    dense   smooth      PW
     Min         189     189     46                19334    19334    2406
     Max         192     192     48                19350    19350    2428
     Sum       12173   12173   3053              1238073  1238073  154925
 


     bravais-lattice index     =            0
     lattice parameter (alat)  =      33.2346  a.u.
     unit-cell volume          =   36230.2928 (a.u.)^3
     number of atoms/cell      =           98
     number of atomic types    =            5
     number of electrons       =       391.00
     number of Kohn-Sham states=          245
     kinetic-energy cutoff     =      40.0000  Ry
     charge density cutoff     =     160.0000  Ry
     convergence threshold     =      1.0E-08
     mixing beta               =       0.7000
     number of iterations used =            8  plain     mixing
     Exchange-correlation      = SLA PW PBX PBC ( 1  4  3  4 0 0)
     Using LIBXC version       =    4   3   4
     nstep                     =           50


     celldm(1)=  33.234611  celldm(2)=   0.000000  celldm(3)=   0.000000
     celldm(4)=   0.000000  celldm(5)=   0.000000  celldm(6)=   0.000000

     crystal axes: (cart. coord. in units of alat)
               a(1) = (   1.000974   0.000171   0.000000 )  
               a(2) = (  -0.500339   0.866954   0.000000 )  
               a(3) = (   0.000000   0.000000   1.137204 )  

     reciprocal axes: (cart. coord. in units 2 pi/alat)
               b(1) = (  0.998929  0.576504  0.000000 )  
               b(2) = ( -0.000197  1.153350  0.000000 )  
               b(3) = (  0.000000  0.000000  0.879350 )  


     PseudoPot. # 1 for B  read from file:
     ./pseudo/B.pbe-n-kjpaw_psl.1.0.0.UPF
     MD5 check sum: 8c825a5969375aca5c2c6ad5945b3059
     Pseudo is Projector augmented-wave + core cor, Zval =  3.0
     Generated using "atomic" code by A. Dal Corso v.6.3
     Shape of augmentation charge: PSQ
     Using radial grid of 1059 points,  4 beta functions with: 
                l(1) =   0
                l(2) =   0
                l(3) =   1
                l(4) =   1
     Q(r) pseudized with 0 coefficients 


     PseudoPot. # 2 for N  read from file:
     ./pseudo/N.pbe-n-kjpaw_psl.1.0.0.UPF
     MD5 check sum: 14c48229446f9f2d411169a3abcbc3fa
     Pseudo is Projector augmented-wave + core cor, Zval =  5.0
     Generated using "atomic" code by A. Dal Corso v.6.3
     Shape of augmentation charge: PSQ
     Using radial grid of 1085 points,  4 beta functions with: 
                l(1) =   0
                l(2) =   0
                l(3) =   1
                l(4) =   1
     Q(r) pseudized with 0 coefficients 


     PseudoPot. # 3 for C  read from file:
     ./pseudo/C.pbe-n-kjpaw_psl.1.0.0.UPF
     MD5 check sum: 5f16ad9a65e90284d1d834d4ab3b0f7d
     Pseudo is Projector augmented-wave + core cor, Zval =  4.0
     Generated using "atomic" code by A. Dal Corso v.6.3
     Shape of augmentation charge: PSQ
     Using radial grid of 1073 points,  4 beta functions with: 
                l(1) =   0
                l(2) =   0
                l(3) =   1
                l(4) =   1
     Q(r) pseudized with 0 coefficients 


     PseudoPot. # 4 for C  read from file:
     ./pseudo/C.pbe-n-kjpaw_psl.1.0.0.UPF
     MD5 check sum: 5f16ad9a65e90284d1d834d4ab3b0f7d
     Pseudo is Projector augmented-wave + core cor, Zval =  4.0
     Generated using "atomic" code by A. Dal Corso v.6.3
     Shape of augmentation charge: PSQ
     Using radial grid of 1073 points,  4 beta functions with: 
                l(1) =   0
                l(2) =   0
                l(3) =   1
                l(4) =   1
     Q(r) pseudized with 0 coefficients 


     PseudoPot. # 5 for C  read from file:
     ./pseudo/C.pbe-n-kjpaw_psl.1.0.0.UPF
     MD5 check sum: 5f16ad9a65e90284d1d834d4ab3b0f7d
     Pseudo is Projector augmented-wave + core cor, Zval =  4.0
     Generated using "atomic" code by A. Dal Corso v.6.3
     Shape of augmentation charge: PSQ
     Using radial grid of 1073 points,  4 beta functions with: 
                l(1) =   0
                l(2) =   0
                l(3) =   1
                l(4) =   1
     Q(r) pseudized with 0 coefficients 


     atomic species   valence    mass     pseudopotential
        B              3.00    10.00000     B ( 1.00)
        N              5.00    14.00000     N ( 1.00)
        C1             4.00    12.00000     C ( 1.00)
        C2             4.00    12.00000     C ( 1.00)
        C3             4.00    12.00000     C ( 1.00)

     Starting magnetic structure 
     atomic species   magnetization
        B            0.000
        N            0.000
        C1           1.000
        C2           0.000
        C3           0.000

      2 Sym. Ops. (no inversion) found



   Cartesian axes

     site n.     atom                  positions (alat units)
         1           B   tau(   1) = (  -0.0000698   0.0821464   0.5686018  )
         2           B   tau(   2) = (  -0.0715562   0.2061538   0.5686018  )
         3           B   tau(   3) = (  -0.1432077   0.3302169   0.5686018  )
         4           B   tau(   4) = (  -0.2148342   0.4540823   0.5686018  )
         5           B   tau(   5) = (  -0.2859405   0.5779871   0.5686018  )
         6           B   tau(   6) = (  -0.3572276   0.7019559   0.5686018  )
         7           B   tau(   7) = (  -0.4287792   0.8256395   0.5686018  )
         8           B   tau(   8) = (   0.1428833   0.0818626   0.5686018  )
         9           B   tau(   9) = (   0.0710780   0.2051425   0.5686018  )
        10           B   tau(  10) = (  -0.0001986   0.3301437   0.5686018  )
        11           B   tau(  11) = (  -0.0723248   0.4540490   0.5686018  )
        12           B   tau(  12) = (  -0.1438614   0.5781339   0.5686018  )
        13           B   tau(  13) = (  -0.2146610   0.7020182   0.5686018  )
        14           B   tau(  14) = (  -0.2858903   0.8255157   0.5686018  )
        15           B   tau(  15) = (   0.2863212   0.0818962   0.5686018  )
        16           B   tau(  16) = (   0.2149481   0.2048080   0.5686018  )
        17           B   tau(  17) = (   0.1431050   0.3272468   0.5686018  )
        18           B   tau(  18) = (   0.0700276   0.4552047   0.5686018  )
        19           B   tau(  19) = (  -0.0020711   0.5792794   0.5686018  )
        20           B   tau(  20) = (  -0.0719742   0.7026462   0.5686018  )
        21           B   tau(  21) = (  -0.1428866   0.8257637   0.5686018  )
        22           B   tau(  22) = (   0.4291149   0.0825879   0.5686018  )
        23           B   tau(  23) = (   0.3576444   0.2061715   0.5686018  )
        24           B   tau(  24) = (   0.2855510   0.3294143   0.5686018  )
        25           C2  tau(  25) = (   0.2163944   0.4531484   0.5686018  )
        26           B   tau(  26) = (   0.1414301   0.5788775   0.5686018  )
        27           B   tau(  27) = (   0.0712547   0.7027361   0.5686018  )
        28           B   tau(  28) = (  -0.0000288   0.8261362   0.5686018  )
        29           B   tau(  29) = (   0.5719393   0.0826992   0.5686018  )
        30           B   tau(  30) = (   0.5005797   0.2064325   0.5686018  )
        31           B   tau(  31) = (   0.4291338   0.3303231   0.5686018  )
        32           B   tau(  32) = (   0.3581294   0.4551239   0.5686018  )
        33           B   tau(  33) = (   0.2887836   0.5795695   0.5686018  )
        34           B   tau(  34) = (   0.2146230   0.7022256   0.5686018  )
        35           B   tau(  35) = (   0.1430550   0.8260385   0.5686018  )
        36           B   tau(  36) = (   0.7149501   0.0827335   0.5686018  )
        37           B   tau(  37) = (   0.6434527   0.2065860   0.5686018  )
        38           B   tau(  38) = (   0.5721492   0.3303944   0.5686018  )
        39           B   tau(  39) = (   0.5009075   0.4543106   0.5686018  )
        40           B   tau(  40) = (   0.4307402   0.5785709   0.5686018  )
        41           B   tau(  41) = (   0.3585155   0.7029988   0.5686018  )
        42           B   tau(  42) = (   0.2863225   0.8260180   0.5686018  )
        43           B   tau(  43) = (   0.8580922   0.0826639   0.5686018  )
        44           B   tau(  44) = (   0.7864608   0.2065937   0.5686018  )
        45           B   tau(  45) = (   0.7149851   0.3304618   0.5686018  )
        46           B   tau(  46) = (   0.6436693   0.4542071   0.5686018  )
        47           B   tau(  47) = (   0.5728715   0.5782159   0.5686018  )
        48           B   tau(  48) = (   0.5011816   0.7024535   0.5686018  )
        49           B   tau(  49) = (   0.4294593   0.8261128   0.5686018  )
        50           N   tau(  50) = (   0.0714060   0.0409784   0.5686018  )
        51           N   tau(  51) = (  -0.0003493   0.1644427   0.5686018  )
        52           N   tau(  52) = (  -0.0716685   0.2888523   0.5686018  )
        53           N   tau(  53) = (  -0.1435241   0.4127489   0.5686018  )
        54           N   tau(  54) = (  -0.2149118   0.5366096   0.5686018  )
        55           N   tau(  55) = (  -0.2859101   0.6605796   0.5686018  )
        56           N   tau(  56) = (  -0.3573206   0.7843827   0.5686018  )
        57           N   tau(  57) = (   0.2145921   0.0409119   0.5686018  )
        58           N   tau(  58) = (   0.1428748   0.1641537   0.5686018  )
        59           N   tau(  59) = (   0.0709494   0.2874799   0.5686018  )
        60           N   tau(  60) = (  -0.0009736   0.4129352   0.5686018  )
        61           N   tau(  61) = (  -0.0728237   0.5369339   0.5686018  )
        62           N   tau(  62) = (  -0.1432893   0.6608117   0.5686018  )
        63           N   tau(  63) = (  -0.2143987   0.7844409   0.5686018  )
        64           N   tau(  64) = (   0.3577716   0.0411453   0.5686018  )
        65           N   tau(  65) = (   0.2866167   0.1642063   0.5686018  )
        66           N   tau(  66) = (   0.2151197   0.2865072   0.5686018  )
        67           C1  tau(  67) = (   0.1450640   0.4127772   0.5686018  )
        68           N   tau(  68) = (   0.0685307   0.5385174   0.5686018  )
        69           N   tau(  69) = (  -0.0007751   0.6617257   0.5686018  )
        70           N   tau(  70) = (  -0.0715382   0.7849397   0.5686018  )
        71           N   tau(  71) = (   0.5005031   0.0415607   0.5686018  )
        72           N   tau(  72) = (   0.4291507   0.1652062   0.5686018  )
        73           N   tau(  73) = (   0.3574088   0.2891636   0.5686018  )
        74           N   tau(  74) = (   0.2853877   0.4133149   0.5686018  )
        75           C3  tau(  75) = (   0.2156916   0.5351076   0.5686018  )
        76           N   tau(  76) = (   0.1425360   0.6615010   0.5686018  )
        77           N   tau(  77) = (   0.0714221   0.7850465   0.5686018  )
        78           N   tau(  78) = (   0.6434270   0.0415692   0.5686018  )
        79           N   tau(  79) = (   0.5719922   0.1652779   0.5686018  )
        80           N   tau(  80) = (   0.5004703   0.2891370   0.5686018  )
        81           N   tau(  81) = (   0.4289165   0.4130186   0.5686018  )
        82           N   tau(  82) = (   0.3600724   0.5375728   0.5686018  )
        83           N   tau(  83) = (   0.2871449   0.6619415   0.5686018  )
        84           N   tau(  84) = (   0.2146475   0.7847660   0.5686018  )
        85           N   tau(  85) = (   0.7865031   0.0415384   0.5686018  )
        86           N   tau(  86) = (   0.7149431   0.1653110   0.5686018  )
        87           N   tau(  87) = (   0.6434964   0.2891268   0.5686018  )
        88           N   tau(  88) = (   0.5721376   0.4128670   0.5686018  )
        89           N   tau(  89) = (   0.5017367   0.5368050   0.5686018  )
        90           N   tau(  90) = (   0.4299113   0.6613154   0.5686018  )
        91           N   tau(  91) = (   0.3580489   0.7852066   0.5686018  )
        92           N   tau(  92) = (   0.9294946   0.0414396   0.5686018  )
        93           N   tau(  93) = (   0.8579134   0.1652245   0.5686018  )
        94           N   tau(  94) = (   0.7863486   0.2891167   0.5686018  )
        95           N   tau(  95) = (   0.7148940   0.4128967   0.5686018  )
        96           N   tau(  96) = (   0.6438880   0.5367135   0.5686018  )
        97           N   tau(  97) = (   0.5725004   0.6608273   0.5686018  )
        98           N   tau(  98) = (   0.5008497   0.7847967   0.5686018  )

     number of k points=     1
                       cart. coord. in units 2pi/alat
        k(    1) = (   0.0000000   0.0000000   0.0000000), wk =   1.0000000

     Dense  grid:   619037 G-vectors     FFT dimensions: ( 135, 135, 160)

     Occupations read from input 

      Spin-up

        1.0000   1.0000   1.0000   1.0000   1.0000   1.0000   1.0000   1.0000
        1.0000   1.0000   1.0000   1.0000   1.0000   1.0000   1.0000   1.0000
        1.0000   1.0000   1.0000   1.0000   1.0000   1.0000   1.0000   1.0000
        1.0000   1.0000   1.0000   1.0000   1.0000   1.0000   1.0000   1.0000
        1.0000   1.0000   1.0000   1.0000   1.0000   1.0000   1.0000   1.0000
        1.0000   1.0000   1.0000   1.0000   1.0000   1.0000   1.0000   1.0000
        1.0000   1.0000   1.0000   1.0000   1.0000   1.0000   1.0000   1.0000
        1.0000   1.0000   1.0000   1.0000   1.0000   1.0000   1.0000   1.0000
        1.0000   1.0000   1.0000   1.0000   1.0000   1.0000   1.0000   1.0000
        1.0000   1.0000   1.0000   1.0000   1.0000   1.0000   1.0000   1.0000
        1.0000   1.0000   1.0000   1.0000   1.0000   1.0000   1.0000   1.0000
        1.0000   1.0000   1.0000   1.0000   1.0000   1.0000   1.0000   1.0000
        1.0000   1.0000   1.0000   1.0000   1.0000   1.0000   1.0000   1.0000
        1.0000   1.0000   1.0000   1.0000   1.0000   1.0000   1.0000   1.0000
        1.0000   1.0000   1.0000   1.0000   1.0000   1.0000   1.0000   1.0000
        1.0000   1.0000   1.0000   1.0000   1.0000   1.0000   1.0000   1.0000
        1.0000   1.0000   1.0000   1.0000   1.0000   1.0000   1.0000   1.0000
        1.0000   1.0000   1.0000   1.0000   1.0000   1.0000   1.0000   1.0000
        1.0000   1.0000   1.0000   1.0000   1.0000   1.0000   1.0000   1.0000
        1.0000   1.0000   1.0000   1.0000   1.0000   1.0000   1.0000   1.0000
        1.0000   1.0000   1.0000   1.0000   1.0000   1.0000   1.0000   1.0000
        1.0000   1.0000   1.0000   1.0000   1.0000   1.0000   1.0000   1.0000
        1.0000   1.0000   1.0000   1.0000   1.0000   1.0000   1.0000   1.0000
        1.0000   1.0000   1.0000   1.0000   1.0000   1.0000   1.0000   1.0000
        1.0000   1.0000   1.0000   0.0000   1.0000   0.0000   0.0000   0.0000
        0.0000   0.0000   0.0000   0.0000   0.0000   0.0000   0.0000   0.0000
        0.0000   0.0000   0.0000   0.0000   0.0000   0.0000   0.0000   0.0000
        0.0000   0.0000   0.0000   0.0000   0.0000   0.0000   0.0000   0.0000
        0.0000   0.0000   0.0000   0.0000   0.0000   0.0000   0.0000   0.0000
        0.0000   0.0000   0.0000   0.0000   0.0000   0.0000   0.0000   0.0000
        0.0000   0.0000   0.0000   0.0000   0.0000

      Spin-down

        1.0000   1.0000   1.0000   1.0000   1.0000   1.0000   1.0000   1.0000
        1.0000   1.0000   1.0000   1.0000   1.0000   1.0000   1.0000   1.0000
        1.0000   1.0000   1.0000   1.0000   1.0000   1.0000   1.0000   1.0000
        1.0000   1.0000   1.0000   1.0000   1.0000   1.0000   1.0000   1.0000
        1.0000   1.0000   1.0000   1.0000   1.0000   1.0000   1.0000   1.0000
        1.0000   1.0000   1.0000   1.0000   1.0000   1.0000   1.0000   1.0000
        1.0000   1.0000   1.0000   1.0000   1.0000   1.0000   1.0000   1.0000
        1.0000   1.0000   1.0000   1.0000   1.0000   1.0000   1.0000   1.0000
        1.0000   1.0000   1.0000   1.0000   1.0000   1.0000   1.0000   1.0000
        1.0000   1.0000   1.0000   1.0000   1.0000   1.0000   1.0000   1.0000
        1.0000   1.0000   1.0000   1.0000   1.0000   1.0000   1.0000   1.0000
        1.0000   1.0000   1.0000   1.0000   1.0000   1.0000   1.0000   1.0000
        1.0000   1.0000   1.0000   1.0000   1.0000   1.0000   1.0000   1.0000
        1.0000   1.0000   1.0000   1.0000   1.0000   1.0000   1.0000   1.0000
        1.0000   1.0000   1.0000   1.0000   1.0000   1.0000   1.0000   1.0000
        1.0000   1.0000   1.0000   1.0000   1.0000   1.0000   1.0000   1.0000
        1.0000   1.0000   1.0000   1.0000   1.0000   1.0000   1.0000   1.0000
        1.0000   1.0000   1.0000   1.0000   1.0000   1.0000   1.0000   1.0000
        1.0000   1.0000   1.0000   1.0000   1.0000   1.0000   1.0000   1.0000
        1.0000   1.0000   1.0000   1.0000   1.0000   1.0000   1.0000   1.0000
        1.0000   1.0000   1.0000   1.0000   1.0000   1.0000   1.0000   1.0000
        1.0000   1.0000   1.0000   1.0000   1.0000   1.0000   1.0000   1.0000
        1.0000   1.0000   1.0000   1.0000   1.0000   1.0000   1.0000   1.0000
        1.0000   1.0000   1.0000   1.0000   1.0000   1.0000   1.0000   1.0000
        1.0000   1.0000   0.0000   1.0000   0.0000   0.0000   0.0000   0.0000
        0.0000   0.0000   0.0000   0.0000   0.0000   0.0000   0.0000   0.0000
        0.0000   0.0000   0.0000   0.0000   0.0000   0.0000   0.0000   0.0000
        0.0000   0.0000   0.0000   0.0000   0.0000   0.0000   0.0000   0.0000
        0.0000   0.0000   0.0000   0.0000   0.0000   0.0000   0.0000   0.0000
        0.0000   0.0000   0.0000   0.0000   0.0000   0.0000   0.0000   0.0000
        0.0000   0.0000   0.0000   0.0000   0.0000

     Estimated max dynamical RAM per process >     122.39 MB

     Estimated total dynamical RAM >       7.65 GB
     Generating pointlists ...
     new r_m :   0.0336 (alat units)  1.1176 (a.u.) for type    1
     new r_m :   0.0329 (alat units)  1.0922 (a.u.) for type    2
     new r_m :   0.0338 (alat units)  1.1236 (a.u.) for type    3
     new r_m :   0.0329 (alat units)  1.0922 (a.u.) for type    4
     new r_m :   0.0338 (alat units)  1.1236 (a.u.) for type    5

     Check: negative core charge=   -0.000006

     Initial potential from superposition of free atoms

     starting charge  390.98597, renormalised to  391.00000

     negative rho (up, down):  5.518E-02 5.891E-02
     Starting wfcs are  392 randomized atomic wfcs
     Checking if some PAW data can be deallocated... 

     total cpu time spent up to now is        7.5 secs

     Self-consistent Calculation

     iteration #  1     ecut=    40.00 Ry     beta= 0.70
     CG style diagonalization
     ethr =  1.00E-02,  avg # of iterations =  3.1

     negative rho (up, down):  3.246E-01 8.598E-03

     total cpu time spent up to now is       43.9 secs

     total energy              =   -1933.12659318 Ry
     Harris-Foulkes estimate   =   -1946.12940997 Ry
     estimated scf accuracy    <      19.81680876 Ry

     total magnetization       =     1.00 Bohr mag/cell
     absolute magnetization    =     1.72 Bohr mag/cell

     iteration #  2     ecut=    40.00 Ry     beta= 0.70
     CG style diagonalization
     ethr =  5.07E-03,  avg # of iterations =  4.0

     negative rho (up, down):  3.593E-01 8.140E-03

     total cpu time spent up to now is       79.7 secs

     total energy              =   -1936.80123168 Ry
     Harris-Foulkes estimate   =   -1943.83118949 Ry
     estimated scf accuracy    <      13.75509060 Ry

     total magnetization       =     1.00 Bohr mag/cell
     absolute magnetization    =     1.34 Bohr mag/cell

     iteration #  3     ecut=    40.00 Ry     beta= 0.70
     CG style diagonalization
     ethr =  3.52E-03,  avg # of iterations =  3.8

     negative rho (up, down):  3.880E-01 9.649E-03

     total cpu time spent up to now is      112.6 secs

     total energy              =   -1939.13016498 Ry
     Harris-Foulkes estimate   =   -1940.77546933 Ry
     estimated scf accuracy    <       3.81289268 Ry

     total magnetization       =     1.00 Bohr mag/cell
     absolute magnetization    =     2.48 Bohr mag/cell

     iteration #  4     ecut=    40.00 Ry     beta= 0.70
     CG style diagonalization
     ethr =  9.75E-04,  avg # of iterations =  3.6

     negative rho (up, down):  4.476E-01 9.412E-03

     total cpu time spent up to now is      143.7 secs

     total energy              =   -1939.99673858 Ry
     Harris-Foulkes estimate   =   -1940.28999172 Ry
     estimated scf accuracy    <       0.94942119 Ry

     total magnetization       =     1.00 Bohr mag/cell
     absolute magnetization    =     1.71 Bohr mag/cell

     iteration #  5     ecut=    40.00 Ry     beta= 0.70
     CG style diagonalization
     ethr =  2.43E-04,  avg # of iterations =  3.4

     negative rho (up, down):  4.105E-01 4.425E-02

     total cpu time spent up to now is      172.1 secs

     total energy              =   -1940.11410991 Ry
     Harris-Foulkes estimate   =   -1940.19364737 Ry
     estimated scf accuracy    <       0.31386451 Ry

     total magnetization       =     1.00 Bohr mag/cell
     absolute magnetization    =     2.35 Bohr mag/cell

     iteration #  6     ecut=    40.00 Ry     beta= 0.70
     CG style diagonalization
     c_bands:  1 eigenvalues not converged
     ethr =  8.03E-05,  avg # of iterations =  3.3

     negative rho (up, down):  4.275E-01 3.483E-02

     total cpu time spent up to now is      199.9 secs

     total energy              =   -1940.14275952 Ry
     Harris-Foulkes estimate   =   -1940.16924526 Ry
     estimated scf accuracy    <       0.08894832 Ry

     total magnetization       =     1.00 Bohr mag/cell
     absolute magnetization    =     1.86 Bohr mag/cell

     iteration #  7     ecut=    40.00 Ry     beta= 0.70
     CG style diagonalization
     c_bands:  1 eigenvalues not converged
     c_bands:  3 eigenvalues not converged
     ethr =  2.27E-05,  avg # of iterations =  3.5

     negative rho (up, down):  4.613E-01 1.376E-02

     total cpu time spent up to now is      230.4 secs

     total energy              =   -1940.16114686 Ry
     Harris-Foulkes estimate   =   -1940.16202259 Ry
     estimated scf accuracy    <       0.01880256 Ry

     total magnetization       =     1.00 Bohr mag/cell
     absolute magnetization    =     1.80 Bohr mag/cell

     iteration #  8     ecut=    40.00 Ry     beta= 0.70
     CG style diagonalization
     c_bands:  5 eigenvalues not converged
     c_bands:  3 eigenvalues not converged
     ethr =  4.81E-06,  avg # of iterations =  4.4

     negative rho (up, down):  4.798E-01 7.330E-03

     total cpu time spent up to now is      270.1 secs

     total energy              =   -1940.16658487 Ry
     Harris-Foulkes estimate   =   -1940.16612714 Ry
     estimated scf accuracy    <       0.00558907 Ry

     total magnetization       =     1.00 Bohr mag/cell
     absolute magnetization    =     1.89 Bohr mag/cell

     iteration #  9     ecut=    40.00 Ry     beta= 0.70
     CG style diagonalization
     c_bands:  1 eigenvalues not converged
     c_bands:  2 eigenvalues not converged
     ethr =  1.43E-06,  avg # of iterations =  7.7

     negative rho (up, down):  4.824E-01 8.113E-03

     total cpu time spent up to now is      337.8 secs

     total energy              =   -1940.16812917 Ry
     Harris-Foulkes estimate   =   -1940.16853191 Ry
     estimated scf accuracy    <       0.00249216 Ry

     total magnetization       =     1.00 Bohr mag/cell
     absolute magnetization    =     1.94 Bohr mag/cell

     iteration # 10     ecut=    40.00 Ry     beta= 0.70
     CG style diagonalization
     c_bands:  1 eigenvalues not converged
     c_bands:  5 eigenvalues not converged
     ethr =  6.37E-07,  avg # of iterations =  3.8

     negative rho (up, down):  4.816E-01 8.009E-03

     total cpu time spent up to now is      371.2 secs

     total energy              =   -1940.16843279 Ry
     Harris-Foulkes estimate   =   -1940.16919325 Ry
     estimated scf accuracy    <       0.00291882 Ry

     total magnetization       =     1.00 Bohr mag/cell
     absolute magnetization    =     2.00 Bohr mag/cell

     iteration # 11     ecut=    40.00 Ry     beta= 0.70
     CG style diagonalization
     c_bands:  4 eigenvalues not converged
     ethr =  6.37E-07,  avg # of iterations =  3.3

     negative rho (up, down):  4.798E-01 7.905E-03

     total cpu time spent up to now is      399.2 secs

     total energy              =   -1940.16884135 Ry
     Harris-Foulkes estimate   =   -1940.16889634 Ry
     estimated scf accuracy    <       0.00022432 Ry

     total magnetization       =     1.00 Bohr mag/cell
     absolute magnetization    =     2.00 Bohr mag/cell

     iteration # 12     ecut=    40.00 Ry     beta= 0.70
     CG style diagonalization
     ethr =  5.74E-08,  avg # of iterations =  3.7

     negative rho (up, down):  4.808E-01 8.108E-03

     total cpu time spent up to now is      431.6 secs

     total energy              =   -1940.16895062 Ry
     Harris-Foulkes estimate   =   -1940.16893894 Ry
     estimated scf accuracy    <       0.00009689 Ry

     total magnetization       =     1.00 Bohr mag/cell
     absolute magnetization    =     2.01 Bohr mag/cell

     iteration # 13     ecut=    40.00 Ry     beta= 0.70
     CG style diagonalization
     ethr =  2.48E-08,  avg # of iterations =  3.5

     negative rho (up, down):  4.804E-01 8.086E-03

     total cpu time spent up to now is      461.9 secs

     total energy              =   -1940.16897921 Ry
     Harris-Foulkes estimate   =   -1940.16898248 Ry
     estimated scf accuracy    <       0.00002115 Ry

     total magnetization       =     1.00 Bohr mag/cell
     absolute magnetization    =     2.02 Bohr mag/cell

     iteration # 14     ecut=    40.00 Ry     beta= 0.70
     CG style diagonalization
     ethr =  5.41E-09,  avg # of iterations =  3.4

     negative rho (up, down):  4.802E-01 8.105E-03

     total cpu time spent up to now is      490.7 secs

     total energy              =   -1940.16898189 Ry
     Harris-Foulkes estimate   =   -1940.16898298 Ry
     estimated scf accuracy    <       0.00000879 Ry

     total magnetization       =     1.00 Bohr mag/cell
     absolute magnetization    =     2.02 Bohr mag/cell

     iteration # 15     ecut=    40.00 Ry     beta= 0.70
     CG style diagonalization
     ethr =  2.25E-09,  avg # of iterations =  3.4

     negative rho (up, down):  4.801E-01 8.135E-03

     total cpu time spent up to now is      520.3 secs

     total energy              =   -1940.16898439 Ry
     Harris-Foulkes estimate   =   -1940.16898391 Ry
     estimated scf accuracy    <       0.00000277 Ry

     total magnetization       =     1.00 Bohr mag/cell
     absolute magnetization    =     2.02 Bohr mag/cell

     iteration # 16     ecut=    40.00 Ry     beta= 0.70
     CG style diagonalization
     ethr =  7.07E-10,  avg # of iterations =  3.6

     negative rho (up, down):  4.801E-01 8.151E-03

     total cpu time spent up to now is      552.1 secs

     total energy              =   -1940.16898539 Ry
     Harris-Foulkes estimate   =   -1940.16898610 Ry
     estimated scf accuracy    <       0.00000376 Ry

     total magnetization       =     1.00 Bohr mag/cell
     absolute magnetization    =     2.02 Bohr mag/cell

     iteration # 17     ecut=    40.00 Ry     beta= 0.70
     CG style diagonalization
     ethr =  7.07E-10,  avg # of iterations =  3.3

     negative rho (up, down):  4.801E-01 8.156E-03

     total cpu time spent up to now is      579.6 secs

     total energy              =   -1940.16898619 Ry
     Harris-Foulkes estimate   =   -1940.16898628 Ry
     estimated scf accuracy    <       0.00000059 Ry

     total magnetization       =     1.00 Bohr mag/cell
     absolute magnetization    =     2.03 Bohr mag/cell

     iteration # 18     ecut=    40.00 Ry     beta= 0.70
     CG style diagonalization
     ethr =  1.50E-10,  avg # of iterations =  3.5

     negative rho (up, down):  4.801E-01 8.159E-03

     total cpu time spent up to now is      608.9 secs

     total energy              =   -1940.16898631 Ry
     Harris-Foulkes estimate   =   -1940.16898636 Ry
     estimated scf accuracy    <       0.00000022 Ry

     total magnetization       =     1.00 Bohr mag/cell
     absolute magnetization    =     2.03 Bohr mag/cell

     iteration # 19     ecut=    40.00 Ry     beta= 0.70
     CG style diagonalization
     ethr =  5.70E-11,  avg # of iterations =  3.5

     negative rho (up, down):  4.800E-01 8.159E-03

     total cpu time spent up to now is      638.3 secs

     total energy              =   -1940.16898637 Ry
     Harris-Foulkes estimate   =   -1940.16898638 Ry
     estimated scf accuracy    <       0.00000005 Ry

     total magnetization       =     1.00 Bohr mag/cell
     absolute magnetization    =     2.03 Bohr mag/cell

     iteration # 20     ecut=    40.00 Ry     beta= 0.70
     CG style diagonalization
     ethr =  1.18E-11,  avg # of iterations =  3.9

     negative rho (up, down):  4.800E-01 8.157E-03

     total cpu time spent up to now is      672.0 secs

     total energy              =   -1940.16898637 Ry
     Harris-Foulkes estimate   =   -1940.16898640 Ry
     estimated scf accuracy    <       0.00000009 Ry

     total magnetization       =     1.00 Bohr mag/cell
     absolute magnetization    =     2.03 Bohr mag/cell

     iteration # 21     ecut=    40.00 Ry     beta= 0.70
     CG style diagonalization
     ethr =  1.18E-11,  avg # of iterations =  3.3

     negative rho (up, down):  4.800E-01 8.159E-03

     total cpu time spent up to now is      700.0 secs

     total energy              =   -1940.16898639 Ry
     Harris-Foulkes estimate   =   -1940.16898639 Ry
     estimated scf accuracy    <       0.00000001 Ry

     total magnetization       =     1.00 Bohr mag/cell
     absolute magnetization    =     2.03 Bohr mag/cell

     iteration # 22     ecut=    40.00 Ry     beta= 0.70
     CG style diagonalization
     ethr =  3.42E-12,  avg # of iterations =  3.4

     negative rho (up, down):  4.800E-01 8.157E-03
 
     Magnetic moment per site:
     atom:    1    charge:    0.8537    magn:    0.0000    constr:    0.0000
     atom:    2    charge:    0.8490    magn:    0.0011    constr:    0.0000
     atom:    3    charge:    0.8498    magn:   -0.0003    constr:    0.0000
     atom:    4    charge:    0.8516    magn:    0.0003    constr:    0.0000
     atom:    5    charge:    0.8545    magn:    0.0010    constr:    0.0000
     atom:    6    charge:    0.8529    magn:   -0.0001    constr:    0.0000
     atom:    7    charge:    0.8539    magn:    0.0013    constr:    0.0000
     atom:    8    charge:    0.8527    magn:    0.0007    constr:    0.0000
     atom:    9    charge:    0.8539    magn:    0.0009    constr:    0.0000
     atom:   10    charge:    0.8468    magn:    0.0023    constr:    0.0000
     atom:   11    charge:    0.8501    magn:   -0.0004    constr:    0.0000
     atom:   12    charge:    0.8551    magn:    0.0003    constr:    0.0000
     atom:   13    charge:    0.8546    magn:    0.0001    constr:    0.0000
     atom:   14    charge:    0.8529    magn:   -0.0001    constr:    0.0000
     atom:   15    charge:    0.8530    magn:    0.0012    constr:    0.0000
     atom:   16    charge:    0.8584    magn:    0.0047    constr:    0.0000
     atom:   17    charge:    0.8656    magn:    0.0107    constr:    0.0000
     atom:   18    charge:    0.8542    magn:    0.0028    constr:    0.0000
     atom:   19    charge:    0.8631    magn:    0.0049    constr:    0.0000
     atom:   20    charge:    0.8551    magn:    0.0003    constr:    0.0000
     atom:   21    charge:    0.8545    magn:    0.0010    constr:    0.0000
     atom:   22    charge:    0.8498    magn:    0.0001    constr:    0.0000
     atom:   23    charge:    0.8468    magn:   -0.0004    constr:    0.0000
     atom:   24    charge:    0.8435    magn:    0.0093    constr:    0.0000
     atom:   25    charge:    1.6234    magn:    0.2007    constr:    0.0000
     atom:   26    charge:    0.8542    magn:    0.0028    constr:    0.0000
     atom:   27    charge:    0.8501    magn:   -0.0004    constr:    0.0000
     atom:   28    charge:    0.8516    magn:    0.0003    constr:    0.0000
     atom:   29    charge:    0.8499    magn:    0.0008    constr:    0.0000
     atom:   30    charge:    0.8503    magn:    0.0009    constr:    0.0000
     atom:   31    charge:    0.8495    magn:    0.0053    constr:    0.0000
     atom:   32    charge:    0.8435    magn:    0.0093    constr:    0.0000
     atom:   33    charge:    0.8656    magn:    0.0107    constr:    0.0000
     atom:   34    charge:    0.8468    magn:    0.0023    constr:    0.0000
     atom:   35    charge:    0.8498    magn:   -0.0003    constr:    0.0000
     atom:   36    charge:    0.8492    magn:   -0.0003    constr:    0.0000
     atom:   37    charge:    0.8486    magn:    0.0004    constr:    0.0000
     atom:   38    charge:    0.8503    magn:    0.0009    constr:    0.0000
     atom:   39    charge:    0.8468    magn:   -0.0004    constr:    0.0000
     atom:   40    charge:    0.8584    magn:    0.0047    constr:    0.0000
     atom:   41    charge:    0.8539    magn:    0.0009    constr:    0.0000
     atom:   42    charge:    0.8490    magn:    0.0011    constr:    0.0000
     atom:   43    charge:    0.8492    magn:    0.0011    constr:    0.0000
     atom:   44    charge:    0.8492    magn:   -0.0003    constr:    0.0000
     atom:   45    charge:    0.8499    magn:    0.0008    constr:    0.0000
     atom:   46    charge:    0.8498    magn:    0.0001    constr:    0.0000
     atom:   47    charge:    0.8530    magn:    0.0012    constr:    0.0000
     atom:   48    charge:    0.8527    magn:    0.0007    constr:    0.0000
     atom:   49    charge:    0.8537    magn:    0.0000    constr:    0.0000
     atom:   50    charge:    2.6981    magn:   -0.0002    constr:    0.0000
     atom:   51    charge:    2.6964    magn:   -0.0003    constr:    0.0000
     atom:   52    charge:    2.6864    magn:    0.0022    constr:    0.0000
     atom:   53    charge:    2.6958    magn:    0.0038    constr:    0.0000
     atom:   54    charge:    2.6975    magn:   -0.0004    constr:    0.0000
     atom:   55    charge:    2.6901    magn:    0.0008    constr:    0.0000
     atom:   56    charge:    2.6930    magn:    0.0003    constr:    0.0000
     atom:   57    charge:    2.6934    magn:    0.0017    constr:    0.0000
     atom:   58    charge:    2.6936    magn:    0.0030    constr:    0.0000
     atom:   59    charge:    2.6844    magn:    0.0163    constr:    0.0000
     atom:   60    charge:    2.6865    magn:   -0.0168    constr:    0.0000
     atom:   61    charge:    2.6938    magn:    0.0139    constr:    0.0000
     atom:   62    charge:    2.6892    magn:    0.0099    constr:    0.0000
     atom:   63    charge:    2.6901    magn:    0.0008    constr:    0.0000
     atom:   64    charge:    2.6983    magn:    0.0000    constr:    0.0000
     atom:   65    charge:    2.6984    magn:    0.0046    constr:    0.0000
     atom:   66    charge:    2.6957    magn:   -0.0106    constr:    0.0000
     atom:   67    charge:    1.7355    magn:   -0.0777    constr:    0.0000
     atom:   68    charge:    2.6793    magn:    0.0963    constr:    0.0000
     atom:   69    charge:    2.6938    magn:    0.0139    constr:    0.0000
     atom:   70    charge:    2.6975    magn:   -0.0004    constr:    0.0000
     atom:   71    charge:    2.6969    magn:    0.0004    constr:    0.0000
     atom:   72    charge:    2.6923    magn:   -0.0004    constr:    0.0000
     atom:   73    charge:    2.6868    magn:    0.0077    constr:    0.0000
     atom:   74    charge:    2.6577    magn:    0.0907    constr:    0.0000
     atom:   75    charge:    1.7354    magn:   -0.0777    constr:    0.0000
     atom:   76    charge:    2.6865    magn:   -0.0168    constr:    0.0000
     atom:   77    charge:    2.6958    magn:    0.0038    constr:    0.0000
     atom:   78    charge:    2.6956    magn:   -0.0002    constr:    0.0000
     atom:   79    charge:    2.6920    magn:   -0.0001    constr:    0.0000
     atom:   80    charge:    2.6875    magn:    0.0047    constr:    0.0000
     atom:   81    charge:    2.6868    magn:    0.0077    constr:    0.0000
     atom:   82    charge:    2.6957    magn:   -0.0106    constr:    0.0000
     atom:   83    charge:    2.6844    magn:    0.0163    constr:    0.0000
     atom:   84    charge:    2.6864    magn:    0.0022    constr:    0.0000
     atom:   85    charge:    2.6935    magn:    0.0000    constr:    0.0000
     atom:   86    charge:    2.6930    magn:    0.0004    constr:    0.0000
     atom:   87    charge:    2.6920    magn:   -0.0001    constr:    0.0000
     atom:   88    charge:    2.6923    magn:   -0.0004    constr:    0.0000
     atom:   89    charge:    2.6984    magn:    0.0046    constr:    0.0000
     atom:   90    charge:    2.6936    magn:    0.0030    constr:    0.0000
     atom:   91    charge:    2.6964    magn:   -0.0003    constr:    0.0000
     atom:   92    charge:    2.6996    magn:    0.0005    constr:    0.0000
     atom:   93    charge:    2.6935    magn:    0.0000    constr:    0.0000
     atom:   94    charge:    2.6956    magn:   -0.0002    constr:    0.0000
     atom:   95    charge:    2.6969    magn:    0.0004    constr:    0.0000
     atom:   96    charge:    2.6983    magn:    0.0000    constr:    0.0000
     atom:   97    charge:    2.6934    magn:    0.0017    constr:    0.0000
     atom:   98    charge:    2.6981    magn:   -0.0002    constr:    0.0000

     total cpu time spent up to now is      728.8 secs

     End of self-consistent calculation

 ------ SPIN UP ------------


          k = 0.0000 0.0000 0.0000 ( 77463 PWs)   bands (ev):

   -21.8176 -21.6256 -21.4003 -21.3898 -21.3812 -21.3025 -21.2872 -20.8791
   -20.6647 -20.6558 -20.6237 -20.5520 -20.5480 -20.4310 -20.2978 -20.2923
   -20.2800 -20.1315 -20.1079 -19.5939 -19.4206 -19.4076 -19.4001 -19.3950
   -19.3845 -19.3753 -19.3699 -19.3327 -19.3045 -19.1789 -19.1669 -19.0404
   -18.9768 -18.9739 -18.9526 -18.7687 -18.7681 -18.5544 -18.5463 -18.5258
   -18.5242 -18.4751 -18.4260 -18.4042 -18.3706 -18.3468 -18.3463 -16.7339
   -14.7401 -13.1295 -12.7794 -12.7738 -12.7501 -12.7223 -12.7174 -12.6546
   -12.5690 -12.5345 -12.5257 -12.4791 -12.4115 -12.1542 -12.0713 -12.0624
   -12.0268 -11.9797 -11.9454 -11.5594 -11.4208 -11.4128 -11.3954 -11.3950
   -11.3722 -11.3696 -11.3616 -11.3167 -11.3012 -11.0767 -11.0472 -10.8761
   -10.7257 -10.7124 -10.6780 -10.6521 -10.5031 -10.0725 -10.0336 -10.0106
    -9.9375  -9.8782  -9.8182  -9.4007  -9.3380  -9.3214  -9.3137  -9.2918
    -9.2819  -9.2227  -9.0601  -8.9498  -8.9475  -8.9167  -8.9130  -8.9075
    -8.9020  -8.8896  -8.8823  -8.8642  -8.8360  -8.8305  -8.8276  -8.8262
    -8.8207  -8.7987  -8.7980  -8.7482  -8.7297  -8.7089  -8.6559  -8.6427
    -8.4696  -8.4534  -8.2232  -8.1924  -8.1923  -8.0927  -8.0846  -7.9891
    -7.8609  -7.8416  -7.8380  -7.7980  -7.7265  -7.7231  -7.5609  -7.5129
    -7.5043  -7.4773  -7.4746  -7.4546  -7.4440  -7.4074  -7.4050  -7.3576
    -7.3422  -7.3401  -7.3333  -7.2777  -7.2262  -7.2237  -7.1810  -7.0388
    -7.0310  -7.0004  -6.8934  -6.8142  -6.6520  -6.5348  -6.3019  -6.1956
    -6.1871  -6.1596  -6.0938  -6.0815  -6.0725  -6.0713  -6.0705  -6.0576
    -6.0509  -6.0475  -6.0326  -5.9752  -5.8697  -5.8151  -5.7981  -5.7011
    -5.5453  -5.4560  -5.4541  -5.4465  -5.3100  -5.2373  -5.1022  -5.0323
    -4.8035  -4.8028  -4.7819  -4.7634  -4.6803  -4.6708  -4.5742  -4.5220
    -4.5174  -4.5056  -4.3523  -3.0698  -0.0534   0.1759   0.6737   0.6768
     0.7064   0.7198   0.7268   0.7285   0.7766   0.7906   0.8041   0.8054
     0.8109   0.8262   0.8344   0.8521   0.8620   0.8914   0.9079   0.9335
     0.9615   1.1152   1.2119   1.2302   1.2328   1.2620   1.3106   1.3166
     1.3217   1.3263   1.3383   1.3578   1.3914   1.4354   1.4378   1.4410
     1.4496   1.4598   1.4834   1.8820   2.0579   2.0912   2.0947   2.1078
     2.1084   2.1270   2.1361   2.2080   2.2666

 ------ SPIN DOWN ----------


          k = 0.0000 0.0000 0.0000 ( 77463 PWs)   bands (ev):

   -21.7629 -21.5285 -21.3971 -21.3844 -21.3744 -21.2958 -21.2396 -20.8205
   -20.6575 -20.6375 -20.6229 -20.5476 -20.5324 -20.4145 -20.2889 -20.2867
   -20.2568 -20.1091 -20.0932 -19.5522 -19.4133 -19.4011 -19.3945 -19.3892
   -19.3799 -19.3730 -19.3575 -19.3114 -19.3024 -19.1611 -19.1568 -19.0306
   -18.9715 -18.9714 -18.9278 -18.7682 -18.7520 -18.5458 -18.5404 -18.5182
   -18.5074 -18.4691 -18.4155 -18.3968 -18.3681 -18.3410 -18.3294 -16.6117
   -14.8613 -13.0566 -12.7733 -12.7649 -12.7463 -12.7199 -12.7140 -12.6459
   -12.5628 -12.5278 -12.5206 -12.4689 -12.3993 -12.1427 -12.0625 -12.0532
   -12.0267 -11.9757 -11.9336 -11.5387 -11.4070 -11.3999 -11.3901 -11.3843
   -11.3690 -11.3574 -11.3572 -11.3066 -11.2895 -11.0834 -11.0344 -10.8574
   -10.7196 -10.7098 -10.6700 -10.6420 -10.4941 -10.0580 -10.0212  -9.9997
    -9.9268  -9.8731  -9.8117  -9.3881  -9.3105  -9.3035  -9.3008  -9.2883
    -9.2779  -9.2217  -9.0407  -8.9328  -8.9096  -8.9061  -8.9032  -8.8912
    -8.8844  -8.8766  -8.8560  -8.8439  -8.8281  -8.8255  -8.8235  -8.8101
    -8.8023  -8.7940  -8.7915  -8.7321  -8.7237  -8.6492  -8.6327  -8.5982
    -8.4685  -8.4511  -8.2204  -8.1909  -8.1899  -8.0828  -8.0735  -7.8611
    -7.8389  -7.8218  -7.7969  -7.7926  -7.7133  -7.6842  -7.5479  -7.5022
    -7.4958  -7.4730  -7.4525  -7.4424  -7.4008  -7.3994  -7.3836  -7.3368
    -7.3297  -7.3249  -7.2915  -7.2744  -7.2146  -7.1849  -7.1562  -7.0291
    -7.0281  -6.9959  -6.8820  -6.8071  -6.6559  -6.5453  -6.1893  -6.1814
    -6.1548  -6.1328  -6.0752  -6.0660  -6.0642  -6.0568  -6.0523  -6.0459
    -6.0371  -6.0206  -5.9822  -5.9596  -5.8243  -5.8197  -5.7885  -5.7111
    -5.4968  -5.4450  -5.4366  -5.4067  -5.2806  -5.2409  -5.1147  -5.0441
    -4.7801  -4.7700  -4.7466  -4.7443  -4.6674  -4.6557  -4.5519  -4.5124
    -4.4938  -4.4902  -4.1629  -3.3868   0.1845   0.4788   0.7067   0.7139
     0.7170   0.7337   0.7457   0.7535   0.7931   0.8053   0.8070   0.8085
     0.8143   0.8357   0.8546   0.8629   0.8809   0.9200   0.9400   0.9468
     1.0143   1.1698   1.2291   1.2565   1.2628   1.3118   1.3176   1.3177
     1.3226   1.3281   1.3462   1.3648   1.4186   1.4348   1.4371   1.4408
     1.4509   1.4607   1.4909   1.8885   2.0978   2.1022   2.1128   2.1239
     2.1419   2.1546   2.1927   2.2965   2.3007

     highest occupied, lowest unoccupied level (ev):    -4.3523   -4.1629

!    total energy              =   -1940.16898639 Ry
     Harris-Foulkes estimate   =   -1940.16898639 Ry
     estimated scf accuracy    <          7.2E-10 Ry

     total all-electron energy =     -7769.993463 Ry

     The total energy is the sum of the following terms:

     one-electron contribution =  -10645.08326246 Ry
     hartree contribution      =    5408.13470011 Ry
     xc contribution           =    -430.67000016 Ry
     ewald contribution        =    4370.89748341 Ry
     DFT-D3 Dispersion         =      -0.27014880 Ry
     one-center paw contrib.   =    -643.17775849 Ry

     total magnetization       =     1.00 Bohr mag/cell
     absolute magnetization    =     2.03 Bohr mag/cell

     convergence has been achieved in  22 iterations

     negative rho (up, down):  4.800E-01 8.157E-03

     Forces acting on atoms (cartesian axes, Ry/au):

     atom    1 type  1   force =    -0.00006437   -0.00033835    0.00000000
     atom    2 type  1   force =    -0.00026117   -0.00018167    0.00000000
     atom    3 type  1   force =    -0.00028714    0.00005409    0.00000000
     atom    4 type  1   force =    -0.00009251    0.00016039    0.00000000
     atom    5 type  1   force =     0.00036797   -0.00039263    0.00000000
     atom    6 type  1   force =     0.00021240   -0.00006426    0.00000000
     atom    7 type  1   force =    -0.00023265    0.00013047    0.00000000
     atom    8 type  1   force =    -0.00018282    0.00031825    0.00000000
     atom    9 type  1   force =     0.00005426    0.00010084    0.00000000
     atom   10 type  1   force =    -0.00019526   -0.00019789    0.00000000
     atom   11 type  1   force =    -0.00015580   -0.00027507    0.00000000
     atom   12 type  1   force =     0.00040184   -0.00012694    0.00000000
     atom   13 type  1   force =     0.00041803   -0.00024297    0.00000000
     atom   14 type  1   force =     0.00016047   -0.00015489    0.00000000
     atom   15 type  1   force =     0.00002961    0.00003487    0.00000000
     atom   16 type  1   force =    -0.00016679    0.00009963    0.00000000
     atom   17 type  1   force =     0.00001431   -0.00033442    0.00000000
     atom   18 type  1   force =    -0.00011540   -0.00032545    0.00000000
     atom   19 type  1   force =    -0.00003173    0.00001830    0.00000000
     atom   20 type  1   force =     0.00031181   -0.00028674    0.00000000
     atom   21 type  1   force =     0.00052382   -0.00012454    0.00000000
     atom   22 type  1   force =     0.00028575   -0.00033361    0.00000000
     atom   23 type  1   force =    -0.00014425    0.00031350    0.00000000
     atom   24 type  1   force =    -0.00020595    0.00005886    0.00000000
     atom   25 type  4   force =     0.00013109   -0.00008269    0.00000000
     atom   26 type  1   force =     0.00022607    0.00026069    0.00000000
     atom   27 type  1   force =     0.00016057    0.00027147    0.00000000
     atom   28 type  1   force =    -0.00018407   -0.00000228    0.00000000
     atom   29 type  1   force =    -0.00003776    0.00007803    0.00000000
     atom   30 type  1   force =     0.00001067   -0.00009710    0.00000000
     atom   31 type  1   force =    -0.00023938    0.00013818    0.00000000
     atom   32 type  1   force =    -0.00015334    0.00014817    0.00000000
     atom   33 type  1   force =     0.00029326    0.00015132    0.00000000
     atom   34 type  1   force =     0.00007249    0.00026778    0.00000000
     atom   35 type  1   force =    -0.00018965    0.00022125    0.00000000
     atom   36 type  1   force =    -0.00013771    0.00015912    0.00000000
     atom   37 type  1   force =     0.00002741   -0.00001428    0.00000000
     atom   38 type  1   force =     0.00009062    0.00004119    0.00000000
     atom   39 type  1   force =    -0.00034161   -0.00003054    0.00000000
     atom   40 type  1   force =    -0.00016827    0.00009511    0.00000000
     atom   41 type  1   force =    -0.00005816   -0.00009553    0.00000000
     atom   42 type  1   force =     0.00002853    0.00031547    0.00000000
     atom   43 type  1   force =    -0.00003439    0.00001918    0.00000000
     atom   44 type  1   force =    -0.00020744    0.00004048    0.00000000
     atom   45 type  1   force =    -0.00008733   -0.00000452    0.00000000
     atom   46 type  1   force =     0.00043164   -0.00007970    0.00000000
     atom   47 type  1   force =    -0.00001521   -0.00004318    0.00000000
     atom   48 type  1   force =    -0.00036622   -0.00000126    0.00000000
     atom   49 type  1   force =     0.00026157    0.00022086    0.00000000
     atom   50 type  2   force =     0.00028608   -0.00000401    0.00000000
     atom   51 type  2   force =     0.00008891   -0.00016222    0.00000000
     atom   52 type  2   force =    -0.00043245   -0.00027712    0.00000000
     atom   53 type  2   force =    -0.00022252   -0.00000004    0.00000000
     atom   54 type  2   force =     0.00049740    0.00012714    0.00000000
     atom   55 type  2   force =     0.00008788    0.00002267    0.00000000
     atom   56 type  2   force =     0.00013207   -0.00007308    0.00000000
     atom   57 type  2   force =    -0.00009613   -0.00016032    0.00000000
     atom   58 type  2   force =    -0.00007459   -0.00034371    0.00000000
     atom   59 type  2   force =    -0.00030166   -0.00051050    0.00000000
     atom   60 type  2   force =    -0.00050298   -0.00001692    0.00000000
     atom   61 type  2   force =    -0.00025371   -0.00004918    0.00000000
     atom   62 type  2   force =     0.00018857   -0.00010857    0.00000000
     atom   63 type  2   force =     0.00002444   -0.00008444    0.00000000
     atom   64 type  2   force =    -0.00021587   -0.00007587    0.00000000
     atom   65 type  2   force =    -0.00011586   -0.00030447    0.00000000
     atom   66 type  2   force =     0.00004887   -0.00016228    0.00000000
     atom   67 type  3   force =    -0.00020921   -0.00032458    0.00000000
     atom   68 type  2   force =    -0.00033611    0.00019260    0.00000000
     atom   69 type  2   force =    -0.00008545    0.00024490    0.00000000
     atom   70 type  2   force =     0.00013697   -0.00049221    0.00000000
     atom   71 type  2   force =     0.00012774   -0.00033820    0.00000000
     atom   72 type  2   force =    -0.00032652   -0.00009227    0.00000000
     atom   73 type  2   force =    -0.00017155   -0.00006927    0.00000000
     atom   74 type  2   force =     0.00025924   -0.00014901    0.00000000
     atom   75 type  5   force =     0.00017752    0.00034935    0.00000000
     atom   76 type  2   force =    -0.00023756    0.00044609    0.00000000
     atom   77 type  2   force =    -0.00011220    0.00019316    0.00000000
     atom   78 type  2   force =    -0.00001775   -0.00031116    0.00000000
     atom   79 type  2   force =    -0.00024212    0.00005878    0.00000000
     atom   80 type  2   force =    -0.00015690    0.00008875    0.00000000
     atom   81 type  2   force =    -0.00002801    0.00018297    0.00000000
     atom   82 type  2   force =     0.00016736    0.00003737    0.00000000
     atom   83 type  2   force =     0.00029113    0.00051824    0.00000000
     atom   84 type  2   force =     0.00002272    0.00051406    0.00000000
     atom   85 type  2   force =    -0.00014390   -0.00029141    0.00000000
     atom   86 type  2   force =    -0.00003831    0.00002252    0.00000000
     atom   87 type  2   force =    -0.00017210    0.00017872    0.00000000
     atom   88 type  2   force =    -0.00008313    0.00032753    0.00000000
     atom   89 type  2   force =     0.00020453    0.00025133    0.00000000
     atom   90 type  2   force =     0.00025878    0.00023508    0.00000000
     atom   91 type  2   force =     0.00018394    0.00000513    0.00000000
     atom   92 type  2   force =     0.00023013   -0.00013001    0.00000000
     atom   93 type  2   force =     0.00018257    0.00027155    0.00000000
     atom   94 type  2   force =     0.00026294    0.00017037    0.00000000
     atom   95 type  2   force =     0.00035894    0.00005752    0.00000000
     atom   96 type  2   force =    -0.00004077    0.00022464    0.00000000
     atom   97 type  2   force =     0.00009228    0.00016449    0.00000000
     atom   98 type  2   force =     0.00014850   -0.00024108    0.00000000

     Total force =     0.003064     Total SCF correction =     0.000046


     Computing stress (Cartesian axis) and pressure


     negative rho (up, down):  4.800E-01 8.157E-03
          total   stress  (Ry/bohr**3)                   (kbar)     P=   -0.12
   0.00000046  -0.00000001   0.00000000          0.07     -0.00      0.00
  -0.00000001   0.00000044   0.00000000         -0.00      0.07      0.00
   0.00000000   0.00000000  -0.00000333          0.00      0.00     -0.49


     BFGS Geometry Optimization

     number of scf cycles    =   1
     number of bfgs steps    =   0

     enthalpy new            =   -1940.1689863937 Ry

     new trust radius        =       0.0005944117 bohr
     new conv_thr            =       0.0000000100 Ry

     new unit-cell volume =  36231.10775 a.u.^3 (  5368.89618 Ang^3 )
     density =      0.36310 g/cm^3

CELL_PARAMETERS (alat= 33.23461096)
   1.000985287   0.000170819   0.000000000
  -0.500344710   0.866964109   0.000000000
   0.000000000   0.000000000   1.137203616

ATOMIC_POSITIONS (crystal)
B        0.047280174   0.094731809   0.500000000
B        0.047357980   0.237775222   0.500000000
B        0.047309374   0.380885589   0.500000000
B        0.047176231   0.523763542   0.500000000
B        0.047582007   0.666663828   0.500000000
B        0.047840776   0.809668636   0.500000000
B        0.047659958   0.952339918   0.500000000
B        0.189924401   0.094399097   0.500000000
B        0.189270674   0.236590470   0.500000000
B        0.190121427   0.380764196   0.500000000
B        0.189504323   0.523681958   0.500000000
B        0.189599104   0.666814342   0.500000000
B        0.190293697   0.809706246   0.500000000
B        0.190331302   0.952159151   0.500000000
B        0.333229389   0.094399715   0.500000000
B        0.332787157   0.236176302   0.500000000
B        0.331605402   0.377390165   0.500000000
B        0.332370732   0.524984979   0.500000000
B        0.331887356   0.668112665   0.500000000
B        0.333185659   0.810400847   0.500000000
B        0.333336164   0.952417945   0.500000000
B        0.476270198   0.095156547   0.500000000
B        0.476120962   0.237728174   0.500000000
B        0.475148557   0.379875590   0.500000000
C2       0.477406918   0.522592949   0.500000000
B        0.475015057   0.667629242   0.500000000
B        0.476318058   0.810495649   0.500000000
B        0.476236481   0.952823746   0.500000000
B        0.619003177   0.095271094   0.500000000
B        0.619051141   0.237986755   0.500000000
B        0.619101820   0.380898179   0.500000000
B        0.620124417   0.524851465   0.500000000
B        0.622609753   0.668394547   0.500000000
B        0.619235787   0.809878547   0.500000000
B        0.619114435   0.952690605   0.500000000
B        0.761878882   0.095285271   0.500000000
B        0.761861519   0.238138500   0.500000000
B        0.762013285   0.380948903   0.500000000
B        0.762271865   0.523879092   0.500000000
B        0.763823700   0.667212841   0.500000000
B        0.763409557   0.810729338   0.500000000
B        0.762224791   0.952641987   0.500000000
B        0.904828110   0.095171855   0.500000000
B        0.904714711   0.238121123   0.500000000
B        0.904728903   0.380996868   0.500000000
B        0.904843453   0.523729836   0.500000000
B        0.905600282   0.666770619   0.500000000
B        0.905600897   0.810075583   0.500000000
B        0.905268153   0.952719756   0.500000000
N        0.094962261   0.047248209   0.500000000
N        0.094452836   0.189654399   0.500000000
N        0.094915043   0.333152166   0.500000000
N        0.094574363   0.476071993   0.500000000
N        0.094693205   0.618945138   0.500000000
N        0.095226133   0.761936348   0.500000000
N        0.095264746   0.904735315   0.500000000
N        0.237942359   0.047137800   0.500000000
N        0.237348772   0.189286495   0.500000000
N        0.236588768   0.331533052   0.500000000
N        0.237070853   0.476258169   0.500000000
N        0.236790368   0.619285119   0.500000000
N        0.237828666   0.762171343   0.500000000
N        0.238063685   0.904773907   0.500000000
N        0.381100928   0.047381773   0.500000000
N        0.380966424   0.189320140   0.500000000
N        0.380060361   0.330394870   0.500000000
C1       0.382864373   0.476036485   0.500000000
N        0.378908005   0.621092003   0.500000000
N        0.380714901   0.763209662   0.500000000
N        0.381054884   0.905306826   0.500000000
N        0.523924741   0.047823599   0.500000000
N        0.523921517   0.190452736   0.500000000
N        0.523723400   0.333433794   0.500000000
N        0.523364887   0.476635145   0.500000000
C3       0.523963599   0.617135700   0.500000000
N        0.523741854   0.762929196   0.500000000
N        0.523928005   0.905425649   0.500000000
N        0.666696464   0.047806158   0.500000000
N        0.666656395   0.190512419   0.500000000
N        0.666619539   0.333380424   0.500000000
N        0.666566168   0.476276611   0.500000000
N        0.669605150   0.619939604   0.500000000
N        0.668466950   0.763411256   0.500000000
N        0.666847817   0.905084968   0.500000000
N        0.809598058   0.047743093   0.500000000
N        0.809478751   0.190521233   0.500000000
N        0.809487553   0.333343573   0.500000000
N        0.809547246   0.476078484   0.500000000
N        0.810679832   0.619033569   0.500000000
N        0.810713462   0.762651195   0.500000000
N        0.810345603   0.905547179   0.500000000
N        0.952393417   0.047606650   0.500000000
N        0.952256931   0.190401938   0.500000000
N        0.952193860   0.333303528   0.500000000
N        0.952176423   0.476075271   0.500000000
N        0.952618226   0.618899079   0.500000000
N        0.952862217   0.762057653   0.500000000
N        0.952751839   0.905037808   0.500000000



     Writing output data file C2Cn.save/
     NEW-OLD atomic charge density approx. for the potential
     NEW k-points:
   0.0000000   0.0000000   0.0000000   1.0000000
   0.0000000   0.0000000   0.0000000   1.0000000

     Check: negative core charge=   -0.000006

     negative rho (up, down):  4.800E-01 4.126E-03
     extrapolated charge  391.00879, renormalised to  391.00000

     total cpu time spent up to now is      747.9 secs

     Self-consistent Calculation

     iteration #  1     ecut=    40.00 Ry     beta= 0.70
     CG style diagonalization
     ethr =  1.00E-06,  avg # of iterations =  2.0

     Threshold (ethr) on eigenvalues was too large:
     Diagonalizing with lowered threshold

     CG style diagonalization
     ethr =  4.29E-10,  avg # of iterations = 16.4

     negative rho (up, down):  4.800E-01 7.504E-03

     total cpu time spent up to now is      940.9 secs

     total energy              =   -1940.16898977 Ry
     Harris-Foulkes estimate   =   -1939.93685132 Ry
     estimated scf accuracy    <       0.00000440 Ry

     total magnetization       =     1.00 Bohr mag/cell
     absolute magnetization    =     2.03 Bohr mag/cell

     iteration #  2     ecut=    40.00 Ry     beta= 0.70
     CG style diagonalization
     ethr =  1.13E-09,  avg # of iterations =  4.1

     negative rho (up, down):  4.800E-01 7.664E-03

     total cpu time spent up to now is      977.0 secs

     total energy              =   -1940.16899103 Ry
     Harris-Foulkes estimate   =   -1940.16899468 Ry
     estimated scf accuracy    <       0.00000784 Ry

     total magnetization       =     1.00 Bohr mag/cell
     absolute magnetization    =     2.03 Bohr mag/cell

     iteration #  3     ecut=    40.00 Ry     beta= 0.70
     CG style diagonalization
     ethr =  1.13E-09,  avg # of iterations =  3.5

     negative rho (up, down):  4.800E-01 7.749E-03

     total cpu time spent up to now is     1006.6 secs

     total energy              =   -1940.16899195 Ry
     Harris-Foulkes estimate   =   -1940.16899272 Ry
     estimated scf accuracy    <       0.00000147 Ry

     total magnetization       =     1.00 Bohr mag/cell
     absolute magnetization    =     2.03 Bohr mag/cell

     iteration #  4     ecut=    40.00 Ry     beta= 0.70
     CG style diagonalization
     ethr =  3.75E-10,  avg # of iterations =  3.2

     negative rho (up, down):  4.800E-01 7.986E-03

     total cpu time spent up to now is     1032.7 secs

     total energy              =   -1940.16899183 Ry
     Harris-Foulkes estimate   =   -1940.16899225 Ry
     estimated scf accuracy    <       0.00000013 Ry

     total magnetization       =     1.00 Bohr mag/cell
     absolute magnetization    =     2.03 Bohr mag/cell

     iteration #  5     ecut=    40.00 Ry     beta= 0.70
     CG style diagonalization
     ethr =  3.20E-11,  avg # of iterations =  3.8

     negative rho (up, down):  4.801E-01 8.046E-03

     total cpu time spent up to now is     1065.7 secs

     total energy              =   -1940.16899175 Ry
     Harris-Foulkes estimate   =   -1940.16899189 Ry
     estimated scf accuracy    <       0.00000013 Ry

     total magnetization       =     1.00 Bohr mag/cell
     absolute magnetization    =     2.03 Bohr mag/cell

     iteration #  6     ecut=    40.00 Ry     beta= 0.70
     CG style diagonalization
     ethr =  3.20E-11,  avg # of iterations =  3.2

     negative rho (up, down):  4.801E-01 8.082E-03

     total cpu time spent up to now is     1091.8 secs

     total energy              =   -1940.16899172 Ry
     Harris-Foulkes estimate   =   -1940.16899178 Ry
     estimated scf accuracy    <       0.00000002 Ry

     total magnetization       =     1.00 Bohr mag/cell
     absolute magnetization    =     2.03 Bohr mag/cell

     iteration #  7     ecut=    40.00 Ry     beta= 0.70
     CG style diagonalization
     ethr =  6.14E-12,  avg # of iterations =  3.4

     negative rho (up, down):  4.800E-01 8.138E-03
 
     Magnetic moment per site:
     atom:    1    charge:    0.8537    magn:    0.0000    constr:    0.0000
     atom:    2    charge:    0.8491    magn:    0.0011    constr:    0.0000
     atom:    3    charge:    0.8500    magn:   -0.0003    constr:    0.0000
     atom:    4    charge:    0.8517    magn:    0.0003    constr:    0.0000
     atom:    5    charge:    0.8544    magn:    0.0009    constr:    0.0000
     atom:    6    charge:    0.8530    magn:   -0.0001    constr:    0.0000
     atom:    7    charge:    0.8539    magn:    0.0013    constr:    0.0000
     atom:    8    charge:    0.8528    magn:    0.0007    constr:    0.0000
     atom:    9    charge:    0.8540    magn:    0.0009    constr:    0.0000
     atom:   10    charge:    0.8466    magn:    0.0023    constr:    0.0000
     atom:   11    charge:    0.8502    magn:   -0.0004    constr:    0.0000
     atom:   12    charge:    0.8553    magn:    0.0003    constr:    0.0000
     atom:   13    charge:    0.8546    magn:    0.0001    constr:    0.0000
     atom:   14    charge:    0.8530    magn:   -0.0001    constr:    0.0000
     atom:   15    charge:    0.8531    magn:    0.0012    constr:    0.0000
     atom:   16    charge:    0.8584    magn:    0.0047    constr:    0.0000
     atom:   17    charge:    0.8656    magn:    0.0107    constr:    0.0000
     atom:   18    charge:    0.8541    magn:    0.0028    constr:    0.0000
     atom:   19    charge:    0.8630    magn:    0.0049    constr:    0.0000
     atom:   20    charge:    0.8553    magn:    0.0003    constr:    0.0000
     atom:   21    charge:    0.8544    magn:    0.0009    constr:    0.0000
     atom:   22    charge:    0.8497    magn:    0.0001    constr:    0.0000
     atom:   23    charge:    0.8468    magn:   -0.0004    constr:    0.0000
     atom:   24    charge:    0.8435    magn:    0.0093    constr:    0.0000
     atom:   25    charge:    1.6232    magn:    0.2008    constr:    0.0000
     atom:   26    charge:    0.8541    magn:    0.0028    constr:    0.0000
     atom:   27    charge:    0.8502    magn:   -0.0004    constr:    0.0000
     atom:   28    charge:    0.8517    magn:    0.0003    constr:    0.0000
     atom:   29    charge:    0.8498    magn:    0.0008    constr:    0.0000
     atom:   30    charge:    0.8503    magn:    0.0009    constr:    0.0000
     atom:   31    charge:    0.8494    magn:    0.0053    constr:    0.0000
     atom:   32    charge:    0.8435    magn:    0.0093    constr:    0.0000
     atom:   33    charge:    0.8656    magn:    0.0107    constr:    0.0000
     atom:   34    charge:    0.8466    magn:    0.0023    constr:    0.0000
     atom:   35    charge:    0.8500    magn:   -0.0003    constr:    0.0000
     atom:   36    charge:    0.8491    magn:   -0.0003    constr:    0.0000
     atom:   37    charge:    0.8486    magn:    0.0004    constr:    0.0000
     atom:   38    charge:    0.8503    magn:    0.0009    constr:    0.0000
     atom:   39    charge:    0.8468    magn:   -0.0004    constr:    0.0000
     atom:   40    charge:    0.8584    magn:    0.0047    constr:    0.0000
     atom:   41    charge:    0.8540    magn:    0.0009    constr:    0.0000
     atom:   42    charge:    0.8491    magn:    0.0011    constr:    0.0000
     atom:   43    charge:    0.8490    magn:    0.0011    constr:    0.0000
     atom:   44    charge:    0.8491    magn:   -0.0003    constr:    0.0000
     atom:   45    charge:    0.8498    magn:    0.0008    constr:    0.0000
     atom:   46    charge:    0.8497    magn:    0.0001    constr:    0.0000
     atom:   47    charge:    0.8531    magn:    0.0012    constr:    0.0000
     atom:   48    charge:    0.8528    magn:    0.0007    constr:    0.0000
     atom:   49    charge:    0.8537    magn:    0.0000    constr:    0.0000
     atom:   50    charge:    2.6982    magn:   -0.0002    constr:    0.0000
     atom:   51    charge:    2.6963    magn:   -0.0003    constr:    0.0000
     atom:   52    charge:    2.6864    magn:    0.0022    constr:    0.0000
     atom:   53    charge:    2.6958    magn:    0.0038    constr:    0.0000
     atom:   54    charge:    2.6976    magn:   -0.0004    constr:    0.0000
     atom:   55    charge:    2.6900    magn:    0.0008    constr:    0.0000
     atom:   56    charge:    2.6929    magn:    0.0003    constr:    0.0000
     atom:   57    charge:    2.6933    magn:    0.0017    constr:    0.0000
     atom:   58    charge:    2.6937    magn:    0.0030    constr:    0.0000
     atom:   59    charge:    2.6844    magn:    0.0163    constr:    0.0000
     atom:   60    charge:    2.6865    magn:   -0.0168    constr:    0.0000
     atom:   61    charge:    2.6938    magn:    0.0140    constr:    0.0000
     atom:   62    charge:    2.6893    magn:    0.0099    constr:    0.0000
     atom:   63    charge:    2.6900    magn:    0.0008    constr:    0.0000
     atom:   64    charge:    2.6982    magn:    0.0000    constr:    0.0000
     atom:   65    charge:    2.6984    magn:    0.0046    constr:    0.0000
     atom:   66    charge:    2.6958    magn:   -0.0107    constr:    0.0000
     atom:   67    charge:    1.7354    magn:   -0.0777    constr:    0.0000
     atom:   68    charge:    2.6792    magn:    0.0963    constr:    0.0000
     atom:   69    charge:    2.6938    magn:    0.0140    constr:    0.0000
     atom:   70    charge:    2.6976    magn:   -0.0004    constr:    0.0000
     atom:   71    charge:    2.6970    magn:    0.0004    constr:    0.0000
     atom:   72    charge:    2.6922    magn:   -0.0004    constr:    0.0000
     atom:   73    charge:    2.6868    magn:    0.0077    constr:    0.0000
     atom:   74    charge:    2.6578    magn:    0.0905    constr:    0.0000
     atom:   75    charge:    1.7354    magn:   -0.0777    constr:    0.0000
     atom:   76    charge:    2.6865    magn:   -0.0168    constr:    0.0000
     atom:   77    charge:    2.6958    magn:    0.0038    constr:    0.0000
     atom:   78    charge:    2.6956    magn:   -0.0002    constr:    0.0000
     atom:   79    charge:    2.6921    magn:   -0.0001    constr:    0.0000
     atom:   80    charge:    2.6874    magn:    0.0047    constr:    0.0000
     atom:   81    charge:    2.6868    magn:    0.0077    constr:    0.0000
     atom:   82    charge:    2.6958    magn:   -0.0107    constr:    0.0000
     atom:   83    charge:    2.6844    magn:    0.0163    constr:    0.0000
     atom:   84    charge:    2.6864    magn:    0.0022    constr:    0.0000
     atom:   85    charge:    2.6935    magn:    0.0000    constr:    0.0000
     atom:   86    charge:    2.6931    magn:    0.0004    constr:    0.0000
     atom:   87    charge:    2.6921    magn:   -0.0001    constr:    0.0000
     atom:   88    charge:    2.6922    magn:   -0.0004    constr:    0.0000
     atom:   89    charge:    2.6984    magn:    0.0046    constr:    0.0000
     atom:   90    charge:    2.6937    magn:    0.0030    constr:    0.0000
     atom:   91    charge:    2.6963    magn:   -0.0003    constr:    0.0000
     atom:   92    charge:    2.6997    magn:    0.0005    constr:    0.0000
     atom:   93    charge:    2.6935    magn:    0.0000    constr:    0.0000
     atom:   94    charge:    2.6956    magn:   -0.0002    constr:    0.0000
     atom:   95    charge:    2.6970    magn:    0.0004    constr:    0.0000
     atom:   96    charge:    2.6982    magn:    0.0000    constr:    0.0000
     atom:   97    charge:    2.6933    magn:    0.0017    constr:    0.0000
     atom:   98    charge:    2.6982    magn:   -0.0002    constr:    0.0000

     total cpu time spent up to now is     1120.1 secs

     End of self-consistent calculation

 ------ SPIN UP ------------


          k = 0.0000 0.0000 0.0000 ( 77463 PWs)   bands (ev):

   -21.8176 -21.6257 -21.4001 -21.3895 -21.3810 -21.3025 -21.2868 -20.8788
   -20.6645 -20.6558 -20.6237 -20.5515 -20.5477 -20.4312 -20.2974 -20.2925
   -20.2801 -20.1314 -20.1079 -19.5938 -19.4206 -19.4072 -19.4000 -19.3953
   -19.3836 -19.3753 -19.3706 -19.3323 -19.3048 -19.1784 -19.1664 -19.0406
   -18.9771 -18.9740 -18.9519 -18.7686 -18.7685 -18.5543 -18.5465 -18.5259
   -18.5234 -18.4751 -18.4260 -18.4047 -18.3707 -18.3462 -18.3453 -16.7336
   -14.7409 -13.1299 -12.7796 -12.7738 -12.7497 -12.7222 -12.7173 -12.6548
   -12.5685 -12.5340 -12.5254 -12.4790 -12.4115 -12.1533 -12.0714 -12.0619
   -12.0267 -11.9797 -11.9456 -11.5599 -11.4211 -11.4135 -11.3951 -11.3946
   -11.3715 -11.3694 -11.3613 -11.3171 -11.3007 -11.0768 -11.0475 -10.8760
   -10.7251 -10.7117 -10.6785 -10.6522 -10.5037 -10.0721 -10.0333 -10.0103
    -9.9379  -9.8784  -9.8183  -9.4004  -9.3379  -9.3215  -9.3136  -9.2917
    -9.2816  -9.2227  -9.0597  -8.9502  -8.9477  -8.9172  -8.9132  -8.9073
    -8.9021  -8.8896  -8.8819  -8.8642  -8.8358  -8.8313  -8.8271  -8.8260
    -8.8206  -8.7983  -8.7981  -8.7483  -8.7299  -8.7085  -8.6562  -8.6426
    -8.4696  -8.4534  -8.2226  -8.1923  -8.1917  -8.0931  -8.0849  -7.9889
    -7.8613  -7.8416  -7.8379  -7.7981  -7.7262  -7.7228  -7.5605  -7.5131
    -7.5044  -7.4776  -7.4750  -7.4551  -7.4440  -7.4069  -7.4045  -7.3570
    -7.3418  -7.3402  -7.3335  -7.2784  -7.2259  -7.2236  -7.1809  -7.0379
    -7.0302  -6.9996  -6.8941  -6.8153  -6.6526  -6.5349  -6.3018  -6.1957
    -6.1876  -6.1594  -6.0938  -6.0812  -6.0728  -6.0718  -6.0700  -6.0575
    -6.0512  -6.0475  -6.0318  -5.9753  -5.8695  -5.8147  -5.7976  -5.7012
    -5.5456  -5.4554  -5.4541  -5.4464  -5.3100  -5.2377  -5.1038  -5.0337
    -4.8036  -4.8027  -4.7816  -4.7637  -4.6804  -4.6709  -4.5748  -4.5223
    -4.5165  -4.5045  -4.3527  -3.0712  -0.0553   0.1760   0.6736   0.6764
     0.7064   0.7198   0.7263   0.7291   0.7767   0.7905   0.8043   0.8055
     0.8109   0.8263   0.8337   0.8521   0.8618   0.8922   0.9079   0.9342
     0.9609   1.1146   1.2119   1.2296   1.2330   1.2616   1.3110   1.3166
     1.3217   1.3263   1.3383   1.3579   1.3915   1.4354   1.4378   1.4410
     1.4496   1.4597   1.4834   1.8820   2.0574   2.0912   2.0946   2.1078
[...]
     atom:   55    charge:    2.6899    magn:    0.0008    constr:    0.0000
     atom:   56    charge:    2.6927    magn:    0.0003    constr:    0.0000
     atom:   57    charge:    2.6932    magn:    0.0017    constr:    0.0000
     atom:   58    charge:    2.6936    magn:    0.0030    constr:    0.0000
     atom:   59    charge:    2.6844    magn:    0.0162    constr:    0.0000
     atom:   60    charge:    2.6863    magn:   -0.0168    constr:    0.0000
     atom:   61    charge:    2.6940    magn:    0.0140    constr:    0.0000
     atom:   62    charge:    2.6896    magn:    0.0098    constr:    0.0000
     atom:   63    charge:    2.6899    magn:    0.0008    constr:    0.0000
     atom:   64    charge:    2.6980    magn:    0.0000    constr:    0.0000
     atom:   65    charge:    2.6982    magn:    0.0045    constr:    0.0000
     atom:   66    charge:    2.6956    magn:   -0.0107    constr:    0.0000
     atom:   67    charge:    1.7348    magn:   -0.0776    constr:    0.0000
     atom:   68    charge:    2.6788    magn:    0.0963    constr:    0.0000
     atom:   69    charge:    2.6940    magn:    0.0140    constr:    0.0000
     atom:   70    charge:    2.6976    magn:   -0.0004    constr:    0.0000
     atom:   71    charge:    2.6969    magn:    0.0004    constr:    0.0000
     atom:   72    charge:    2.6921    magn:   -0.0004    constr:    0.0000
     atom:   73    charge:    2.6867    magn:    0.0078    constr:    0.0000
     atom:   74    charge:    2.6574    magn:    0.0907    constr:    0.0000
     atom:   75    charge:    1.7348    magn:   -0.0776    constr:    0.0000
     atom:   76    charge:    2.6863    magn:   -0.0168    constr:    0.0000
     atom:   77    charge:    2.6959    magn:    0.0038    constr:    0.0000
     atom:   78    charge:    2.6957    magn:   -0.0002    constr:    0.0000
     atom:   79    charge:    2.6917    magn:   -0.0001    constr:    0.0000
     atom:   80    charge:    2.6870    magn:    0.0047    constr:    0.0000
     atom:   81    charge:    2.6867    magn:    0.0078    constr:    0.0000
     atom:   82    charge:    2.6956    magn:   -0.0107    constr:    0.0000
     atom:   83    charge:    2.6844    magn:    0.0162    constr:    0.0000
     atom:   84    charge:    2.6866    magn:    0.0021    constr:    0.0000
     atom:   85    charge:    2.6936    magn:   -0.0000    constr:    0.0000
     atom:   86    charge:    2.6929    magn:    0.0004    constr:    0.0000
     atom:   87    charge:    2.6917    magn:   -0.0001    constr:    0.0000
     atom:   88    charge:    2.6921    magn:   -0.0004    constr:    0.0000
     atom:   89    charge:    2.6982    magn:    0.0045    constr:    0.0000
     atom:   90    charge:    2.6936    magn:    0.0030    constr:    0.0000
     atom:   91    charge:    2.6965    magn:   -0.0003    constr:    0.0000
     atom:   92    charge:    2.6996    magn:    0.0005    constr:    0.0000
     atom:   93    charge:    2.6936    magn:   -0.0000    constr:    0.0000
     atom:   94    charge:    2.6957    magn:   -0.0002    constr:    0.0000
     atom:   95    charge:    2.6969    magn:    0.0004    constr:    0.0000
     atom:   96    charge:    2.6980    magn:    0.0000    constr:    0.0000
     atom:   97    charge:    2.6932    magn:    0.0017    constr:    0.0000
     atom:   98    charge:    2.6981    magn:   -0.0002    constr:    0.0000

     total cpu time spent up to now is     3713.0 secs

     End of self-consistent calculation

 ------ SPIN UP ------------


          k = 0.0000 0.0000 0.0000 ( 77471 PWs)   bands (ev):

   -21.8158 -21.6249 -21.4001 -21.3893 -21.3815 -21.3024 -21.2859 -20.8778
   -20.6648 -20.6553 -20.6237 -20.5513 -20.5475 -20.4312 -20.2971 -20.2924
   -20.2795 -20.1307 -20.1071 -19.5928 -19.4207 -19.4074 -19.4005 -19.3953
   -19.3844 -19.3751 -19.3700 -19.3318 -19.3040 -19.1783 -19.1664 -19.0405
   -18.9768 -18.9740 -18.9518 -18.7691 -18.7677 -18.5547 -18.5467 -18.5262
   -18.5230 -18.4751 -18.4263 -18.4046 -18.3709 -18.3465 -18.3457 -16.7283
   -14.7386 -13.1279 -12.7795 -12.7737 -12.7496 -12.7223 -12.7171 -12.6554
   -12.5685 -12.5342 -12.5255 -12.4788 -12.4114 -12.1536 -12.0709 -12.0620
   -12.0266 -11.9791 -11.9450 -11.5595 -11.4213 -11.4129 -11.3955 -11.3947
   -11.3725 -11.3698 -11.3616 -11.3165 -11.3003 -11.0763 -11.0467 -10.8758
   -10.7255 -10.7121 -10.6780 -10.6518 -10.5031 -10.0722 -10.0336 -10.0106
    -9.9377  -9.8781  -9.8181  -9.3995  -9.3373  -9.3218  -9.3141  -9.2918
    -9.2817  -9.2237  -9.0598  -8.9507  -8.9467  -8.9173  -8.9144  -8.9085
    -8.9023  -8.8900  -8.8820  -8.8643  -8.8359  -8.8307  -8.8275  -8.8263
    -8.8207  -8.7983  -8.7980  -8.7481  -8.7289  -8.7072  -8.6559  -8.6420
    -8.4700  -8.4528  -8.2228  -8.1933  -8.1928  -8.0924  -8.0853  -7.9882
    -7.8612  -7.8412  -7.8383  -7.7981  -7.7258  -7.7225  -7.5600  -7.5136
    -7.5043  -7.4777  -7.4756  -7.4558  -7.4435  -7.4078  -7.4043  -7.3567
    -7.3420  -7.3403  -7.3332  -7.2787  -7.2255  -7.2246  -7.1803  -7.0388
    -7.0309  -7.0009  -6.8935  -6.8145  -6.6529  -6.5349  -6.3012  -6.1960
    -6.1879  -6.1601  -6.0940  -6.0815  -6.0730  -6.0718  -6.0706  -6.0576
    -6.0509  -6.0478  -6.0319  -5.9750  -5.8693  -5.8152  -5.7977  -5.7012
    -5.5456  -5.4556  -5.4542  -5.4465  -5.3103  -5.2373  -5.1003  -5.0339
    -4.8040  -4.8029  -4.7816  -4.7639  -4.6805  -4.6712  -4.5749  -4.5225
    -4.5170  -4.5051  -4.3512  -3.0710  -0.0560   0.1759   0.6727   0.6757
     0.7064   0.7189   0.7257   0.7285   0.7763   0.7907   0.8041   0.8053
     0.8107   0.8259   0.8332   0.8520   0.8615   0.8913   0.9080   0.9333
     0.9604   1.1141   1.2113   1.2292   1.2325   1.2611   1.3105   1.3166
     1.3215   1.3262   1.3381   1.3578   1.3915   1.4354   1.4375   1.4409
     1.4495   1.4598   1.4834   1.8821   2.0564   2.0926   2.0953   2.1092
     2.2613   2.2941   2.3155   2.3160   2.3766

 ------ SPIN DOWN ----------


          k = 0.0000 0.0000 0.0000 ( 77471 PWs)   bands (ev):

   -21.7619 -21.5273 -21.3970 -21.3837 -21.3748 -21.2958 -21.2382 -20.8192
   -20.6577 -20.6370 -20.6230 -20.5468 -20.5318 -20.4148 -20.2890 -20.2864
   -20.2560 -20.1082 -20.0923 -19.5511 -19.4135 -19.4009 -19.3949 -19.3895
   -19.3799 -19.3728 -19.3577 -19.3109 -19.3017 -19.1605 -19.1564 -19.0307
   -18.9715 -18.9714 -18.9270 -18.7678 -18.7524 -18.5461 -18.5408 -18.5187
   -18.5062 -18.4691 -18.4156 -18.3973 -18.3684 -18.3404 -18.3291 -16.6056
   -14.8595 -13.0549 -12.7735 -12.7649 -12.7458 -12.7198 -12.7136 -12.6467
   -12.5624 -12.5276 -12.5204 -12.4686 -12.3992 -12.1421 -12.0622 -12.0528
   -12.0265 -11.9752 -11.9332 -11.5387 -11.4075 -11.4003 -11.3902 -11.3837
   -11.3693 -11.3576 -11.3572 -11.3064 -11.2888 -11.0829 -11.0339 -10.8570
   -10.7195 -10.7096 -10.6700 -10.6417 -10.4942 -10.0578 -10.0212  -9.9996
    -9.9270  -9.8730  -9.8117  -9.3870  -9.3108  -9.3030  -9.3013  -9.2883
    -9.2777  -9.2227  -9.0404  -8.9336  -8.9110  -8.9070  -8.9042  -8.8911
    -8.8849  -8.8764  -8.8559  -8.8428  -8.8280  -8.8256  -8.8233  -8.8099
    -8.8030  -8.7936  -8.7915  -8.7321  -8.7228  -8.6493  -8.6320  -8.5965
    -8.4689  -8.4504  -8.2201  -8.1918  -8.1904  -8.0824  -8.0742  -7.8614
    -7.8385  -7.8221  -7.7965  -7.7928  -7.7128  -7.6833  -7.5470  -7.5028
    -7.4959  -7.4740  -7.4537  -7.4419  -7.4002  -7.3997  -7.3838  -7.3367
    -7.3299  -7.3247  -7.2910  -7.2754  -7.2156  -7.1842  -7.1552  -7.0291
    -7.0280  -6.9964  -6.8821  -6.8073  -6.6568  -6.5454  -6.1896  -6.1822
    -6.1553  -6.1319  -6.0755  -6.0662  -6.0643  -6.0574  -6.0528  -6.0460
    -6.0373  -6.0209  -5.9821  -5.9590  -5.8237  -5.8198  -5.7881  -5.7113
    -5.4971  -5.4452  -5.4366  -5.4063  -5.2809  -5.2409  -5.1129  -5.0456
    -4.7807  -4.7705  -4.7460  -4.7451  -4.6676  -4.6561  -4.5525  -4.5128
    -4.4935  -4.4899  -4.1613  -3.3872   0.1845   0.4779   0.7058   0.7138
     0.7163   0.7328   0.7454   0.7523   0.7931   0.8053   0.8069   0.8079
     0.8141   0.8354   0.8535   0.8629   0.8802   0.9199   0.9398   0.9468
     1.0130   1.1685   1.2285   1.2556   1.2624   1.3109   1.3173   1.3177
     1.3225   1.3280   1.3460   1.3648   1.4186   1.4347   1.4368   1.4405
     1.4507   1.4607   1.4909   1.8885   2.0978   2.1023   2.1128   2.1248
     2.2949   2.3006   2.3140   2.3335   2.3924

     highest occupied, lowest unoccupied level (ev):    -4.3512   -4.1613

!    total energy              =   -1940.16905353 Ry
     Harris-Foulkes estimate   =   -1940.16905353 Ry
     estimated scf accuracy    <          5.7E-11 Ry

     total all-electron energy =     -7769.993530 Ry

     The total energy is the sum of the following terms:

     one-electron contribution =  -10643.86392550 Ry
     hartree contribution      =    5407.51923666 Ry
     xc contribution           =    -430.65843400 Ry
     ewald contribution        =    4370.28170745 Ry
     DFT-D3 Dispersion         =      -0.27012633 Ry
     one-center paw contrib.   =    -643.17751181 Ry

     total magnetization       =     1.00 Bohr mag/cell
     absolute magnetization    =     2.03 Bohr mag/cell

     convergence has been achieved in  21 iterations

     negative rho (up, down):  4.801E-01 8.185E-03

     Forces acting on atoms (cartesian axes, Ry/au):

     atom    1 type  1   force =     0.00002212   -0.00004929    0.00000000
     atom    2 type  1   force =    -0.00005913   -0.00001726    0.00000000
     atom    3 type  1   force =    -0.00002532   -0.00004537    0.00000000
     atom    4 type  1   force =    -0.00007035   -0.00007720    0.00000000
     atom    5 type  1   force =    -0.00001750   -0.00006274    0.00000000
     atom    6 type  1   force =     0.00006054   -0.00002035    0.00000000
     atom    7 type  1   force =     0.00001853   -0.00001206    0.00000000
     atom    8 type  1   force =     0.00002344   -0.00007903    0.00000000
     atom    9 type  1   force =     0.00005699    0.00003031    0.00000000
     atom   10 type  1   force =     0.00016501    0.00005998    0.00000000
     atom   11 type  1   force =     0.00014408   -0.00004365    0.00000000
     atom   12 type  1   force =    -0.00002794   -0.00005093    0.00000000
     atom   13 type  1   force =     0.00003857   -0.00002262    0.00000000
     atom   14 type  1   force =     0.00004751   -0.00004364    0.00000000
     atom   15 type  1   force =     0.00003131    0.00000943    0.00000000
     atom   16 type  1   force =    -0.00006203    0.00005595    0.00000000
     atom   17 type  1   force =     0.00002944    0.00012318    0.00000000
     atom   18 type  1   force =     0.00017303    0.00002711    0.00000000
     atom   19 type  1   force =     0.00011339   -0.00006485    0.00000000
     atom   20 type  1   force =     0.00003120    0.00004947    0.00000000
     atom   21 type  1   force =     0.00004642    0.00004564    0.00000000
     atom   22 type  1   force =     0.00000306    0.00006590    0.00000000
     atom   23 type  1   force =     0.00001091    0.00004591    0.00000000
     atom   24 type  1   force =    -0.00013809    0.00003071    0.00000000
     atom   25 type  4   force =    -0.00002752    0.00001498    0.00000000
     atom   26 type  1   force =     0.00006413   -0.00016402    0.00000000
     atom   27 type  1   force =     0.00011014   -0.00010309    0.00000000
     atom   28 type  1   force =     0.00003230    0.00009886    0.00000000
     atom   29 type  1   force =    -0.00003244    0.00013527    0.00000000
     atom   30 type  1   force =     0.00003339    0.00004443    0.00000000
     atom   31 type  1   force =    -0.00008822    0.00005117    0.00000000
     atom   32 type  1   force =    -0.00009550    0.00010480    0.00000000
     atom   33 type  1   force =    -0.00009444   -0.00008844    0.00000000
     atom   34 type  1   force =     0.00002997   -0.00017298    0.00000000
     atom   35 type  1   force =     0.00002707    0.00004417    0.00000000
     atom   36 type  1   force =    -0.00005538    0.00012154    0.00000000
     atom   37 type  1   force =    -0.00004821    0.00002776    0.00000000
     atom   38 type  1   force =    -0.00002178   -0.00005043    0.00000000
     atom   39 type  1   force =    -0.00003425   -0.00003175    0.00000000
     atom   40 type  1   force =    -0.00007917    0.00002589    0.00000000
     atom   41 type  1   force =     0.00000291   -0.00006429    0.00000000
     atom   42 type  1   force =    -0.00001457    0.00005919    0.00000000
     atom   43 type  1   force =    -0.00001444    0.00000778    0.00000000
     atom   44 type  1   force =    -0.00013356   -0.00001348    0.00000000
     atom   45 type  1   force =    -0.00013444   -0.00003938    0.00000000
     atom   46 type  1   force =    -0.00005664   -0.00003501    0.00000000
     atom   47 type  1   force =     0.00000710   -0.00003144    0.00000000
     atom   48 type  1   force =     0.00007993    0.00001857    0.00000000
     atom   49 type  1   force =     0.00005330    0.00000384    0.00000000
     atom   50 type  2   force =     0.00007540   -0.00004541    0.00000000
     atom   51 type  2   force =    -0.00002680    0.00003898    0.00000000
     atom   52 type  2   force =     0.00002917    0.00000058    0.00000000
     atom   53 type  2   force =     0.00006612   -0.00008567    0.00000000
     atom   54 type  2   force =    -0.00001751   -0.00006202    0.00000000
     atom   55 type  2   force =    -0.00001844    0.00001055    0.00000000
     atom   56 type  2   force =     0.00005481   -0.00003056    0.00000000
     atom   57 type  2   force =     0.00003541   -0.00007057    0.00000000
     atom   58 type  2   force =    -0.00002343   -0.00016651    0.00000000
     atom   59 type  2   force =    -0.00000690   -0.00004343    0.00000000
     atom   60 type  2   force =     0.00005682    0.00000931    0.00000000
     atom   61 type  2   force =    -0.00000287   -0.00001784    0.00000000
     atom   62 type  2   force =     0.00001804   -0.00001080    0.00000000
     atom   63 type  2   force =    -0.00001871    0.00001146    0.00000000
     atom   64 type  2   force =    -0.00005906    0.00006090    0.00000000
     atom   65 type  2   force =     0.00000448   -0.00004175    0.00000000
     atom   66 type  2   force =    -0.00005697   -0.00005473    0.00000000
     atom   67 type  3   force =    -0.00002971    0.00003404    0.00000000
     atom   68 type  2   force =    -0.00001043    0.00000567    0.00000000
     atom   69 type  2   force =     0.00001351    0.00001121    0.00000000
     atom   70 type  2   force =     0.00004430    0.00004655    0.00000000
     atom   71 type  2   force =     0.00003126    0.00009741    0.00000000
     atom   72 type  2   force =    -0.00000245    0.00009702    0.00000000
     atom   73 type  2   force =    -0.00001125    0.00001241    0.00000000
     atom   74 type  2   force =    -0.00006144    0.00003605    0.00000000
     atom   75 type  5   force =    -0.00004320    0.00001105    0.00000000
     atom   76 type  2   force =     0.00002014   -0.00005326    0.00000000
     atom   77 type  2   force =     0.00010706   -0.00001450    0.00000000
     atom   78 type  2   force =    -0.00000028   -0.00002096    0.00000000
     atom   79 type  2   force =    -0.00004980    0.00009694    0.00000000
     atom   80 type  2   force =    -0.00007361    0.00004201    0.00000000
     atom   81 type  2   force =    -0.00001676    0.00000356    0.00000000
     atom   82 type  2   force =     0.00001994    0.00007561    0.00000000
     atom   83 type  2   force =     0.00003439    0.00002840    0.00000000
     atom   84 type  2   force =     0.00001377   -0.00002520    0.00000000
     atom   85 type  2   force =    -0.00007363   -0.00000994    0.00000000
     atom   86 type  2   force =    -0.00007897    0.00004596    0.00000000
     atom   87 type  2   force =    -0.00010827   -0.00000560    0.00000000
     atom   88 type  2   force =    -0.00008489   -0.00004671    0.00000000
     atom   89 type  2   force =     0.00003776    0.00001660    0.00000000
     atom   90 type  2   force =     0.00013222    0.00010337    0.00000000
     atom   91 type  2   force =    -0.00004691    0.00000421    0.00000000
     atom   92 type  2   force =     0.00000358   -0.00000120    0.00000000
     atom   93 type  2   force =    -0.00002775    0.00006916    0.00000000
     atom   94 type  2   force =     0.00001868    0.00001100    0.00000000
     atom   95 type  2   force =    -0.00006736   -0.00007584    0.00000000
     atom   96 type  2   force =    -0.00008124    0.00002034    0.00000000
     atom   97 type  2   force =     0.00007938    0.00000483    0.00000000
     atom   98 type  2   force =     0.00007751   -0.00004116    0.00000000

     Total force =     0.000861     Total SCF correction =     0.000015


     Computing stress (Cartesian axis) and pressure


     negative rho (up, down):  4.801E-01 8.185E-03
          total   stress  (Ry/bohr**3)                   (kbar)     P=   -0.19
  -0.00000027   0.00000002   0.00000000         -0.04      0.00      0.00
   0.00000002  -0.00000024   0.00000000          0.00     -0.04      0.00
   0.00000000   0.00000000  -0.00000334          0.00      0.00     -0.49


     Writing output data file C2Cn.save/
 
     init_run     :      8.60s CPU      8.88s WALL (       2 calls)
     electrons    :   3555.45s CPU   3588.29s WALL (       7 calls)
     update_pot   :     14.82s CPU     14.90s WALL (       5 calls)
     forces       :     24.08s CPU     24.50s WALL (       7 calls)
     stress       :     81.23s CPU     81.80s WALL (       7 calls)

     Called by init_run:
     wfcinit      :      3.42s CPU      3.56s WALL (       2 calls)
     potinit      :      1.80s CPU      1.83s WALL (       2 calls)
     hinit0       :      2.51s CPU      2.54s WALL (       2 calls)

     Called by electrons:
     c_bands      :   3457.09s CPU   3485.78s WALL (      91 calls)
     sum_band     :     51.78s CPU     52.80s WALL (      91 calls)
     v_of_rho     :     15.98s CPU     16.34s WALL (      93 calls)
     newd         :      6.72s CPU      7.24s WALL (      93 calls)
     PAW_pot      :     17.36s CPU     17.55s WALL (      98 calls)
     mix_rho      :      1.57s CPU      1.63s WALL (      91 calls)

     Called by c_bands:
     init_us_2    :      3.48s CPU      3.54s WALL (     406 calls)
     rcgdiagg     :   3366.59s CPU   3393.62s WALL (     198 calls)
     wfcrot       :     90.83s CPU     92.31s WALL (     178 calls)

     Called by sum_band:
     sum_band:bec :      0.12s CPU      0.12s WALL (     192 calls)
     addusdens    :      6.00s CPU      6.59s WALL (      91 calls)

     Called by *cgdiagg:
     h_psi        :   1701.84s CPU   1715.82s WALL (  149641 calls)
     s_psi        :   1002.66s CPU   1011.09s WALL (  299104 calls)
     rdiaghg      :      2.83s CPU      2.90s WALL (     178 calls)

     Called by h_psi:
     h_psi:pot    :   1700.11s CPU   1714.05s WALL (  149641 calls)
     h_psi:calbec :    617.20s CPU    622.17s WALL (  149641 calls)
     vloc_psi     :    570.30s CPU    576.35s WALL (  149641 calls)
     add_vuspsi   :    511.06s CPU    514.51s WALL (  149641 calls)
     hs_1psi      :   2125.42s CPU   2142.25s WALL (  149463 calls)
     s_1psi       :   1038.42s CPU   1046.64s WALL (  149463 calls)

     General routines
     calbec       :   1159.46s CPU   1169.58s WALL (  299366 calls)
     fft          :     14.49s CPU     14.68s WALL (    1813 calls)
     ffts         :      0.70s CPU      0.71s WALL (     182 calls)
     fftw         :    535.19s CPU    540.80s WALL (  365684 calls)
 
     Parallel routines
     fft_scatt_xy :     54.53s CPU     55.01s WALL (  367679 calls)
     fft_scatt_yz :    163.05s CPU    165.04s WALL (  367679 calls)
 
     PWSCF        :      1h 1m CPU      1h 2m WALL

 
   This run was terminated on:  18:26: 0   1Jul2021            

=------------------------------------------------------------------------------=
   JOB DONE.
=------------------------------------------------------------------------------=
