
     Program PWSCF v.6.4.1 starts on 10Jun2021 at  0:59:20 

     This program is part of the open-source Quantum ESPRESSO suite
     for quantum simulation of materials; please cite
         "P. Giannozzi et al., J. Phys.:Condens. Matter 21 395502 (2009);
         "P. Giannozzi et al., J. Phys.:Condens. Matter 29 465901 (2017);
          URL http://www.quantum-espresso.org", 
     in publications or presentations arising from this work. More details at
     http://www.quantum-espresso.org/quote

     Parallel version (MPI), running on    64 processors

     MPI processes distributed on     2 nodes
     R & G space division:  proc/nbgrp/npool/nimage =      64
     Waiting for input...
     Reading input from standard input

     Current dimensions of program PWSCF are:
     Max number of different atomic species (ntypx) = 10
     Max number of k-points (npk) =  40000
     Max angular momentum in pseudopotentials (lmaxx) =  3
               file N.pbe-n-kjpaw_psl.1.0.0.UPF: wavefunction(s)  2S renormalized
               file C.pbe-n-kjpaw_psl.1.0.0.UPF: wavefunction(s)  2S 2P renormalized
               file C.pbe-n-kjpaw_psl.1.0.0.UPF: wavefunction(s)  2S 2P renormalized
               file C.pbe-n-kjpaw_psl.1.0.0.UPF: wavefunction(s)  2S 2P renormalized

     --------------------------------------------
     Parameters for DFT-D3 Dispersion Correction:
     --------------------------------------------
       Reference C6 values for interpolation: 

         atom   Coordination number   C6
         B          0.000           214.36
         B          0.971           150.74
         B          1.944           106.23
         B          2.913            62.89
         B          4.586            56.06
         C1         0.000            98.23
         C1         0.987            86.49
         C1         1.998            58.72
         C1         2.999            51.56
         C1         3.984            36.41
         C2         0.000            98.23
         C2         0.987            86.49
         C2         1.998            58.72
         C2         2.999            51.56
         C2         3.984            36.41
         C3         0.000            98.23
         C3         0.987            86.49
         C3         1.998            58.72
         C3         2.999            51.56
         C3         3.984            36.41
         N          0.000            50.54
         N          0.994            44.25
         N          2.014            39.35
         N          2.990            31.16

       Values used:

         atom   Coordination number  R0_AB[au]  C6      C8
         B          3.325            3.039     62.90   2506.25
         B          3.316            3.039     62.90   2506.45
         B          3.315            3.039     62.90   2506.48
         B          3.325            3.039     62.90   2506.25
         B          3.326            3.039     62.90   2506.23
         B          3.323            3.039     62.90   2506.30
         B          3.325            3.039     62.90   2506.25
         B          3.322            3.039     62.90   2506.31
         B          3.323            3.039     62.90   2506.30
         B          3.300            3.039     62.91   2506.82
         B          3.321            3.039     62.90   2506.35
         B          3.328            3.039     62.90   2506.17
         B          3.324            3.039     62.90   2506.27
         B          3.323            3.039     62.90   2506.30
         B          3.323            3.039     62.90   2506.29
         B          3.321            3.039     62.90   2506.34
         B          3.288            3.039     62.92   2507.09
         B          3.287            3.039     62.92   2507.12
         B          3.336            3.039     62.89   2505.98
         B          3.328            3.039     62.90   2506.17
         B          3.326            3.039     62.90   2506.23
         B          3.322            3.039     62.90   2506.32
         B          3.317            3.039     62.90   2506.44
         B          3.314            3.039     62.90   2506.50
         C2         3.241            2.750     49.55   1432.94
         B          3.287            3.039     62.92   2507.12
         B          3.321            3.039     62.90   2506.35
         B          3.325            3.039     62.90   2506.25
         B          3.320            3.039     62.90   2506.37
         B          3.319            3.039     62.90   2506.39
         B          3.317            3.039     62.90   2506.43
         B          3.314            3.039     62.90   2506.50
         B          3.288            3.039     62.92   2507.09
         B          3.300            3.039     62.91   2506.82
         B          3.315            3.039     62.90   2506.48
         B          3.315            3.039     62.90   2506.48
         B          3.317            3.039     62.90   2506.44
         B          3.319            3.039     62.90   2506.39
         B          3.317            3.039     62.90   2506.44
         B          3.321            3.039     62.90   2506.34
         B          3.323            3.039     62.90   2506.29
         B          3.316            3.039     62.90   2506.45
         B          3.318            3.039     62.90   2506.41
         B          3.315            3.039     62.90   2506.48
         B          3.320            3.039     62.90   2506.37
         B          3.322            3.039     62.90   2506.32
         B          3.323            3.039     62.90   2506.29
         B          3.322            3.039     62.90   2506.31
         B          3.325            3.039     62.90   2506.25
         N          3.129            2.478     31.22    688.75
         N          3.128            2.478     31.22    688.75
         N          3.124            2.478     31.22    688.79
         N          3.128            2.478     31.22    688.76
         N          3.130            2.478     31.22    688.73
         N          3.129            2.478     31.22    688.75
         N          3.128            2.478     31.22    688.75
         N          3.128            2.478     31.22    688.75
         N          3.128            2.478     31.22    688.75
         N          3.123            2.478     31.22    688.80
         N          3.121            2.478     31.22    688.82
         N          3.132            2.478     31.22    688.72
         N          3.129            2.478     31.22    688.74
         N          3.129            2.478     31.22    688.75
         N          3.129            2.478     31.22    688.74
         N          3.128            2.478     31.22    688.75
         N          3.129            2.478     31.22    688.75
         C1         3.180            2.750     50.26   1453.68
         N          3.131            2.478     31.22    688.72
         N          3.132            2.478     31.22    688.72
         N          3.130            2.478     31.22    688.73
         N          3.129            2.478     31.22    688.75
         N          3.127            2.478     31.22    688.76
         N          3.126            2.478     31.22    688.77
         N          3.148            2.478     31.21    688.57
         C3         3.180            2.750     50.26   1453.68
         N          3.121            2.478     31.22    688.82
         N          3.128            2.478     31.22    688.76
         N          3.126            2.478     31.22    688.77
         N          3.127            2.478     31.22    688.77
         N          3.127            2.478     31.22    688.77
         N          3.126            2.478     31.22    688.77
         N          3.129            2.478     31.22    688.75
         N          3.123            2.478     31.22    688.80
         N          3.124            2.478     31.22    688.79
         N          3.126            2.478     31.22    688.77
         N          3.126            2.478     31.22    688.78
         N          3.127            2.478     31.22    688.77
         N          3.127            2.478     31.22    688.76
         N          3.128            2.478     31.22    688.75
         N          3.128            2.478     31.22    688.75
         N          3.128            2.478     31.22    688.75
         N          3.129            2.478     31.22    688.75
         N          3.126            2.478     31.22    688.77
         N          3.126            2.478     31.22    688.77
         N          3.129            2.478     31.22    688.75
         N          3.129            2.478     31.22    688.74
         N          3.128            2.478     31.22    688.75
         N          3.129            2.478     31.22    688.75

         Molecular C6 ( Ry / a.u.^6 ) =    437737.26


     gamma-point specific algorithms are used

     Subspace diagonalization in iterative solution of the eigenvalue problem:
     one sub-group per band group will be used
     scalapack distributed-memory algorithm (size of sub-group:  5*  5 procs)

     Message from routine setup:
     DEPRECATED: symmetry with ibrav=0, use correct ibrav instead
 
     Parallelization info
     --------------------
     sticks:   dense  smooth     PW     G-vecs:    dense   smooth      PW
     Min         189     189     46                19334    19334    2406
     Max         192     192     48                19350    19350    2428
     Sum       12179   12179   3051              1237963  1237963  154879
 


     bravais-lattice index     =            0
     lattice parameter (alat)  =      33.2346  a.u.
     unit-cell volume          =   36225.7258 (a.u.)^3
     number of atoms/cell      =           98
     number of atomic types    =            5
     number of electrons       =       391.00
     number of Kohn-Sham states=          245
     kinetic-energy cutoff     =      40.0000  Ry
     charge density cutoff     =     160.0000  Ry
     convergence threshold     =      1.0E-10
     mixing beta               =       0.7000
     number of iterations used =            8  plain     mixing
     Exchange-correlation      = SLA PW PBX PBC ( 1  4  3  4 0 0)
     Using LIBXC version       =    4   3   4
     nstep                     =           50


     celldm(1)=  33.234611  celldm(2)=   0.000000  celldm(3)=   0.000000
     celldm(4)=   0.000000  celldm(5)=   0.000000  celldm(6)=   0.000000

     crystal axes: (cart. coord. in units of alat)
               a(1) = (   1.001325  -0.000546   0.000000 )  
               a(2) = (  -0.501135   0.866900   0.000000 )  
               a(3) = (   0.000000   0.000000   1.137204 )  

     reciprocal axes: (cart. coord. in units 2 pi/alat)
               b(1) = (  0.998991  0.577494  0.000000 )  
               b(2) = (  0.000629  1.153900  0.000000 )  
               b(3) = (  0.000000  0.000000  0.879350 )  


     PseudoPot. # 1 for B  read from file:
     ./pseudo/B.pbe-n-kjpaw_psl.1.0.0.UPF
     MD5 check sum: 8c825a5969375aca5c2c6ad5945b3059
     Pseudo is Projector augmented-wave + core cor, Zval =  3.0
     Generated using "atomic" code by A. Dal Corso v.6.3
     Shape of augmentation charge: PSQ
     Using radial grid of 1059 points,  4 beta functions with: 
                l(1) =   0
                l(2) =   0
                l(3) =   1
                l(4) =   1
     Q(r) pseudized with 0 coefficients 


     PseudoPot. # 2 for N  read from file:
     ./pseudo/N.pbe-n-kjpaw_psl.1.0.0.UPF
     MD5 check sum: 14c48229446f9f2d411169a3abcbc3fa
     Pseudo is Projector augmented-wave + core cor, Zval =  5.0
     Generated using "atomic" code by A. Dal Corso v.6.3
     Shape of augmentation charge: PSQ
     Using radial grid of 1085 points,  4 beta functions with: 
                l(1) =   0
                l(2) =   0
                l(3) =   1
                l(4) =   1
     Q(r) pseudized with 0 coefficients 


     PseudoPot. # 3 for C  read from file:
     ./pseudo/C.pbe-n-kjpaw_psl.1.0.0.UPF
     MD5 check sum: 5f16ad9a65e90284d1d834d4ab3b0f7d
     Pseudo is Projector augmented-wave + core cor, Zval =  4.0
     Generated using "atomic" code by A. Dal Corso v.6.3
     Shape of augmentation charge: PSQ
     Using radial grid of 1073 points,  4 beta functions with: 
                l(1) =   0
                l(2) =   0
                l(3) =   1
                l(4) =   1
     Q(r) pseudized with 0 coefficients 


     PseudoPot. # 4 for C  read from file:
     ./pseudo/C.pbe-n-kjpaw_psl.1.0.0.UPF
     MD5 check sum: 5f16ad9a65e90284d1d834d4ab3b0f7d
     Pseudo is Projector augmented-wave + core cor, Zval =  4.0
     Generated using "atomic" code by A. Dal Corso v.6.3
     Shape of augmentation charge: PSQ
     Using radial grid of 1073 points,  4 beta functions with: 
                l(1) =   0
                l(2) =   0
                l(3) =   1
                l(4) =   1
     Q(r) pseudized with 0 coefficients 


     PseudoPot. # 5 for C  read from file:
     ./pseudo/C.pbe-n-kjpaw_psl.1.0.0.UPF
     MD5 check sum: 5f16ad9a65e90284d1d834d4ab3b0f7d
     Pseudo is Projector augmented-wave + core cor, Zval =  4.0
     Generated using "atomic" code by A. Dal Corso v.6.3
     Shape of augmentation charge: PSQ
     Using radial grid of 1073 points,  4 beta functions with: 
                l(1) =   0
                l(2) =   0
                l(3) =   1
                l(4) =   1
     Q(r) pseudized with 0 coefficients 


     atomic species   valence    mass     pseudopotential
        B              3.00    10.00000     B ( 1.00)
        N              5.00    14.00000     N ( 1.00)
        C1             4.00    12.00000     C ( 1.00)
        C2             4.00    12.00000     C ( 1.00)
        C3             4.00    12.00000     C ( 1.00)

     Starting magnetic structure 
     atomic species   magnetization
        B            0.000
        N            0.000
        C1           1.000
        C2           0.000
        C3           0.000

      2 Sym. Ops. (no inversion) found



   Cartesian axes

     site n.     atom                  positions (alat units)
         1           B   tau(   1) = (  -0.0000589   0.0821318   0.5686018  )
         2           B   tau(   2) = (  -0.0715741   0.2061637   0.5686018  )
         3           B   tau(   3) = (  -0.1434288   0.3303148   0.5686018  )
         4           B   tau(   4) = (  -0.2152708   0.4540955   0.5686018  )
         5           B   tau(   5) = (  -0.2865845   0.5779368   0.5686018  )
         6           B   tau(   6) = (  -0.3579166   0.7018694   0.5686018  )
         7           B   tau(   7) = (  -0.4295239   0.8255545   0.5686018  )
         8           B   tau(   8) = (   0.1429537   0.0818295   0.5686018  )
         9           B   tau(   9) = (   0.0710762   0.2052340   0.5686018  )
        10           B   tau(  10) = (  -0.0001711   0.3299988   0.5686018  )
        11           B   tau(  11) = (  -0.0730123   0.4544198   0.5686018  )
        12           B   tau(  12) = (  -0.1445649   0.5781473   0.5686018  )
        13           B   tau(  13) = (  -0.2153225   0.7018852   0.5686018  )
        14           B   tau(  14) = (  -0.2866057   0.8253830   0.5686018  )
        15           B   tau(  15) = (   0.2864002   0.0818178   0.5686018  )
        16           B   tau(  16) = (   0.2150571   0.2046721   0.5686018  )
        17           B   tau(  17) = (   0.1431646   0.3268536   0.5686018  )
        18           B   tau(  18) = (   0.0689565   0.4566062   0.5686018  )
        19           B   tau(  19) = (  -0.0028999   0.5792432   0.5686018  )
        20           B   tau(  20) = (  -0.0727834   0.7024765   0.5686018  )
        21           B   tau(  21) = (  -0.1436107   0.8255743   0.5686018  )
        22           B   tau(  22) = (   0.4292647   0.0822303   0.5686018  )
        23           B   tau(  23) = (   0.3578693   0.2059357   0.5686018  )
        24           B   tau(  24) = (   0.2863086   0.3298685   0.5686018  )
        25           C2  tau(  25) = (   0.2166849   0.4524646   0.5686018  )
        26           B   tau(  26) = (   0.1392358   0.5783327   0.5686018  )
        27           B   tau(  27) = (   0.0701440   0.7023743   0.5686018  )
        28           B   tau(  28) = (  -0.0007039   0.8257360   0.5686018  )
        29           B   tau(  29) = (   0.5721377   0.0821604   0.5686018  )
        30           B   tau(  30) = (   0.5008174   0.2059237   0.5686018  )
        31           B   tau(  31) = (   0.4293694   0.3296732   0.5686018  )
        32           B   tau(  32) = (   0.3576699   0.4534699   0.5686018  )
        33           B   tau(  33) = (   0.2887079   0.5789433   0.5686018  )
        34           B   tau(  34) = (   0.2143166   0.7015029   0.5686018  )
        35           B   tau(  35) = (   0.1424143   0.8254094   0.5686018  )
        36           B   tau(  36) = (   0.7152405   0.0820729   0.5686018  )
        37           B   tau(  37) = (   0.6436909   0.2059348   0.5686018  )
        38           B   tau(  38) = (   0.5722637   0.3296724   0.5686018  )
        39           B   tau(  39) = (   0.5007792   0.4534628   0.5686018  )
        40           B   tau(  40) = (   0.4304668   0.5777733   0.5686018  )
        41           B   tau(  41) = (   0.3579901   0.7021835   0.5686018  )
        42           B   tau(  42) = (   0.2858598   0.8252571   0.5686018  )
        43           B   tau(  43) = (   0.8584186   0.0819612   0.5686018  )
        44           B   tau(  44) = (   0.7867328   0.2059013   0.5686018  )
        45           B   tau(  45) = (   0.7151058   0.3297886   0.5686018  )
        46           B   tau(  46) = (   0.6436088   0.4534850   0.5686018  )
        47           B   tau(  47) = (   0.5725333   0.5774150   0.5686018  )
        48           B   tau(  48) = (   0.5008001   0.7016376   0.5686018  )
        49           B   tau(  49) = (   0.4290321   0.8253387   0.5686018  )
        50           N   tau(  50) = (   0.0714400   0.0409783   0.5686018  )
        51           N   tau(  51) = (  -0.0003447   0.1644823   0.5686018  )
        52           N   tau(  52) = (  -0.0716147   0.2889762   0.5686018  )
        53           N   tau(  53) = (  -0.1439046   0.4127604   0.5686018  )
        54           N   tau(  54) = (  -0.2155320   0.5365647   0.5686018  )
        55           N   tau(  55) = (  -0.2866441   0.6605134   0.5686018  )
        56           N   tau(  56) = (  -0.3580765   0.7843044   0.5686018  )
        57           N   tau(  57) = (   0.2146105   0.0408812   0.5686018  )
        58           N   tau(  58) = (   0.1429477   0.1642389   0.5686018  )
        59           N   tau(  59) = (   0.0709730   0.2875082   0.5686018  )
        60           N   tau(  60) = (  -0.0009417   0.4132942   0.5686018  )
        61           N   tau(  61) = (  -0.0737091   0.5368819   0.5686018  )
        62           N   tau(  62) = (  -0.1441035   0.6607668   0.5686018  )
        63           N   tau(  63) = (  -0.2151542   0.7843377   0.5686018  )
        64           N   tau(  64) = (   0.3578314   0.0409544   0.5686018  )
        65           N   tau(  65) = (   0.2866237   0.1640528   0.5686018  )
        66           N   tau(  66) = (   0.2150451   0.2867629   0.5686018  )
        67           C1  tau(  67) = (   0.1456356   0.4134838   0.5686018  )
        68           N   tau(  68) = (   0.0670695   0.5388460   0.5686018  )
        69           N   tau(  69) = (  -0.0016191   0.6617462   0.5686018  )
        70           N   tau(  70) = (  -0.0722556   0.7847273   0.5686018  )
        71           N   tau(  71) = (   0.5006747   0.0411555   0.5686018  )
        72           N   tau(  72) = (   0.4293084   0.1647651   0.5686018  )
        73           N   tau(  73) = (   0.3578033   0.2886240   0.5686018  )
        74           N   tau(  74) = (   0.2864123   0.4122097   0.5686018  )
        75           C3  tau(  75) = (   0.2149203   0.5334904   0.5686018  )
        76           N   tau(  76) = (   0.1417953   0.6605224   0.5686018  )
        77           N   tau(  77) = (   0.0707760   0.7845986   0.5686018  )
        78           N   tau(  78) = (   0.6437033   0.0408982   0.5686018  )
        79           N   tau(  79) = (   0.5722750   0.1646372   0.5686018  )
        80           N   tau(  80) = (   0.5008605   0.2883981   0.5686018  )
        81           N   tau(  81) = (   0.4291360   0.4121760   0.5686018  )
        82           N   tau(  82) = (   0.3593689   0.5367382   0.5686018  )
        83           N   tau(  83) = (   0.2866869   0.6611358   0.5686018  )
        84           N   tau(  84) = (   0.2141218   0.7838863   0.5686018  )
        85           N   tau(  85) = (   0.7868187   0.0408161   0.5686018  )
        86           N   tau(  86) = (   0.7152401   0.1646259   0.5686018  )
        87           N   tau(  87) = (   0.6437479   0.2884317   0.5686018  )
        88           N   tau(  88) = (   0.5721538   0.4121799   0.5686018  )
        89           N   tau(  89) = (   0.5014278   0.5361042   0.5686018  )
        90           N   tau(  90) = (   0.4294287   0.6604382   0.5686018  )
        91           N   tau(  91) = (   0.3575719   0.7844116   0.5686018  )
        92           N   tau(  92) = (   0.9298489   0.0407214   0.5686018  )
        93           N   tau(  93) = (   0.8582518   0.1645419   0.5686018  )
        94           N   tau(  94) = (   0.7866230   0.2884420   0.5686018  )
        95           N   tau(  95) = (   0.7148860   0.4121794   0.5686018  )
        96           N   tau(  96) = (   0.6436382   0.5359855   0.5686018  )
        97           N   tau(  97) = (   0.5720909   0.6600548   0.5686018  )
        98           N   tau(  98) = (   0.5004217   0.7839961   0.5686018  )

     number of k points=     1
                       cart. coord. in units 2pi/alat
        k(    1) = (   0.0000000   0.0000000   0.0000000), wk =   1.0000000

     Dense  grid:   618982 G-vectors     FFT dimensions: ( 135, 135, 160)

     Occupations read from input 

      Spin-up

        1.0000   1.0000   1.0000   1.0000   1.0000   1.0000   1.0000   1.0000
        1.0000   1.0000   1.0000   1.0000   1.0000   1.0000   1.0000   1.0000
        1.0000   1.0000   1.0000   1.0000   1.0000   1.0000   1.0000   1.0000
        1.0000   1.0000   1.0000   1.0000   1.0000   1.0000   1.0000   1.0000
        1.0000   1.0000   1.0000   1.0000   1.0000   1.0000   1.0000   1.0000
        1.0000   1.0000   1.0000   1.0000   1.0000   1.0000   1.0000   1.0000
        1.0000   1.0000   1.0000   1.0000   1.0000   1.0000   1.0000   1.0000
        1.0000   1.0000   1.0000   1.0000   1.0000   1.0000   1.0000   1.0000
        1.0000   1.0000   1.0000   1.0000   1.0000   1.0000   1.0000   1.0000
        1.0000   1.0000   1.0000   1.0000   1.0000   1.0000   1.0000   1.0000
        1.0000   1.0000   1.0000   1.0000   1.0000   1.0000   1.0000   1.0000
        1.0000   1.0000   1.0000   1.0000   1.0000   1.0000   1.0000   1.0000
        1.0000   1.0000   1.0000   1.0000   1.0000   1.0000   1.0000   1.0000
        1.0000   1.0000   1.0000   1.0000   1.0000   1.0000   1.0000   1.0000
        1.0000   1.0000   1.0000   1.0000   1.0000   1.0000   1.0000   1.0000
        1.0000   1.0000   1.0000   1.0000   1.0000   1.0000   1.0000   1.0000
        1.0000   1.0000   1.0000   1.0000   1.0000   1.0000   1.0000   1.0000
        1.0000   1.0000   1.0000   1.0000   1.0000   1.0000   1.0000   1.0000
        1.0000   1.0000   1.0000   1.0000   1.0000   1.0000   1.0000   1.0000
        1.0000   1.0000   1.0000   1.0000   1.0000   1.0000   1.0000   1.0000
        1.0000   1.0000   1.0000   1.0000   1.0000   1.0000   1.0000   1.0000
        1.0000   1.0000   1.0000   1.0000   1.0000   1.0000   1.0000   1.0000
        1.0000   1.0000   1.0000   1.0000   1.0000   1.0000   1.0000   1.0000
        1.0000   1.0000   1.0000   1.0000   1.0000   1.0000   1.0000   1.0000
        1.0000   1.0000   1.0000   0.0000   1.0000   0.0000   0.0000   0.0000
        0.0000   0.0000   0.0000   0.0000   0.0000   0.0000   0.0000   0.0000
        0.0000   0.0000   0.0000   0.0000   0.0000   0.0000   0.0000   0.0000
        0.0000   0.0000   0.0000   0.0000   0.0000   0.0000   0.0000   0.0000
        0.0000   0.0000   0.0000   0.0000   0.0000   0.0000   0.0000   0.0000
        0.0000   0.0000   0.0000   0.0000   0.0000   0.0000   0.0000   0.0000
        0.0000   0.0000   0.0000   0.0000   0.0000

      Spin-down

        1.0000   1.0000   1.0000   1.0000   1.0000   1.0000   1.0000   1.0000
        1.0000   1.0000   1.0000   1.0000   1.0000   1.0000   1.0000   1.0000
        1.0000   1.0000   1.0000   1.0000   1.0000   1.0000   1.0000   1.0000
        1.0000   1.0000   1.0000   1.0000   1.0000   1.0000   1.0000   1.0000
        1.0000   1.0000   1.0000   1.0000   1.0000   1.0000   1.0000   1.0000
        1.0000   1.0000   1.0000   1.0000   1.0000   1.0000   1.0000   1.0000
        1.0000   1.0000   1.0000   1.0000   1.0000   1.0000   1.0000   1.0000
        1.0000   1.0000   1.0000   1.0000   1.0000   1.0000   1.0000   1.0000
        1.0000   1.0000   1.0000   1.0000   1.0000   1.0000   1.0000   1.0000
        1.0000   1.0000   1.0000   1.0000   1.0000   1.0000   1.0000   1.0000
        1.0000   1.0000   1.0000   1.0000   1.0000   1.0000   1.0000   1.0000
        1.0000   1.0000   1.0000   1.0000   1.0000   1.0000   1.0000   1.0000
        1.0000   1.0000   1.0000   1.0000   1.0000   1.0000   1.0000   1.0000
        1.0000   1.0000   1.0000   1.0000   1.0000   1.0000   1.0000   1.0000
        1.0000   1.0000   1.0000   1.0000   1.0000   1.0000   1.0000   1.0000
        1.0000   1.0000   1.0000   1.0000   1.0000   1.0000   1.0000   1.0000
        1.0000   1.0000   1.0000   1.0000   1.0000   1.0000   1.0000   1.0000
        1.0000   1.0000   1.0000   1.0000   1.0000   1.0000   1.0000   1.0000
        1.0000   1.0000   1.0000   1.0000   1.0000   1.0000   1.0000   1.0000
        1.0000   1.0000   1.0000   1.0000   1.0000   1.0000   1.0000   1.0000
        1.0000   1.0000   1.0000   1.0000   1.0000   1.0000   1.0000   1.0000
        1.0000   1.0000   1.0000   1.0000   1.0000   1.0000   1.0000   1.0000
        1.0000   1.0000   1.0000   1.0000   1.0000   1.0000   1.0000   1.0000
        1.0000   1.0000   1.0000   1.0000   1.0000   1.0000   1.0000   1.0000
        1.0000   1.0000   1.0000   0.0000   0.0000   0.0000   0.0000   0.0000
        0.0000   0.0000   0.0000   0.0000   0.0000   0.0000   0.0000   0.0000
        0.0000   0.0000   0.0000   0.0000   0.0000   0.0000   0.0000   0.0000
        0.0000   0.0000   0.0000   0.0000   0.0000   0.0000   0.0000   0.0000
        0.0000   0.0000   0.0000   0.0000   0.0000   0.0000   0.0000   0.0000
        0.0000   0.0000   0.0000   0.0000   0.0000   0.0000   0.0000   0.0000
        0.0000   0.0000   0.0000   0.0000   0.0000

     Estimated max dynamical RAM per process >     122.42 MB

     Estimated total dynamical RAM >       7.65 GB
     Generating pointlists ...
     new r_m :   0.0333 (alat units)  1.1076 (a.u.) for type    1
     new r_m :   0.0332 (alat units)  1.1038 (a.u.) for type    2
     new r_m :   0.0334 (alat units)  1.1110 (a.u.) for type    3
     new r_m :   0.0332 (alat units)  1.1038 (a.u.) for type    4
     new r_m :   0.0334 (alat units)  1.1111 (a.u.) for type    5

     Check: negative core charge=   -0.000006

     Initial potential from superposition of free atoms

     starting charge  390.98597, renormalised to  391.00000

     negative rho (up, down):  5.518E-02 5.849E-02
     Starting wfcs are  392 randomized atomic wfcs
     Checking if some PAW data can be deallocated... 

     total cpu time spent up to now is        9.0 secs

     Self-consistent Calculation

     iteration #  1     ecut=    40.00 Ry     beta= 0.70
     CG style diagonalization
     ethr =  1.00E-02,  avg # of iterations =  3.1

     negative rho (up, down):  3.266E-01 1.152E-02

     total cpu time spent up to now is       49.9 secs

     total energy              =   -1933.25152978 Ry
     Harris-Foulkes estimate   =   -1946.30626363 Ry
     estimated scf accuracy    <      19.80944967 Ry

     total magnetization       =     1.00 Bohr mag/cell
     absolute magnetization    =     2.13 Bohr mag/cell

     iteration #  2     ecut=    40.00 Ry     beta= 0.70
     CG style diagonalization
     ethr =  5.07E-03,  avg # of iterations =  4.0

     negative rho (up, down):  3.617E-01 9.413E-03

     total cpu time spent up to now is       90.1 secs

     total energy              =   -1937.34266008 Ry
     Harris-Foulkes estimate   =   -1943.67186815 Ry
     estimated scf accuracy    <      12.38774819 Ry

     total magnetization       =     1.00 Bohr mag/cell
     absolute magnetization    =     2.61 Bohr mag/cell

     iteration #  3     ecut=    40.00 Ry     beta= 0.70
     CG style diagonalization
     ethr =  3.17E-03,  avg # of iterations =  3.8

     negative rho (up, down):  4.040E-01 8.931E-03

     total cpu time spent up to now is      127.3 secs

     total energy              =   -1939.68779576 Ry
     Harris-Foulkes estimate   =   -1940.49323188 Ry
     estimated scf accuracy    <       1.52609522 Ry

     total magnetization       =     1.00 Bohr mag/cell
     absolute magnetization    =     1.91 Bohr mag/cell

     iteration #  4     ecut=    40.00 Ry     beta= 0.70
     CG style diagonalization
     c_bands:  2 eigenvalues not converged
     c_bands:  1 eigenvalues not converged
     ethr =  3.90E-04,  avg # of iterations =  4.3

     negative rho (up, down):  4.494E-01 8.730E-03

     total cpu time spent up to now is      170.3 secs

     total energy              =   -1939.73804695 Ry
     Harris-Foulkes estimate   =   -1940.47505421 Ry
     estimated scf accuracy    <       2.55545930 Ry

     total magnetization       =     1.00 Bohr mag/cell
     absolute magnetization    =     1.65 Bohr mag/cell

     iteration #  5     ecut=    40.00 Ry     beta= 0.70
     CG style diagonalization
     ethr =  3.90E-04,  avg # of iterations =  3.3

     negative rho (up, down):  4.284E-01 3.338E-02

     total cpu time spent up to now is      201.7 secs

     total energy              =   -1940.20586150 Ry
     Harris-Foulkes estimate   =   -1940.28758098 Ry
     estimated scf accuracy    <       0.28955713 Ry

     total magnetization       =     1.00 Bohr mag/cell
     absolute magnetization    =     1.49 Bohr mag/cell

     iteration #  6     ecut=    40.00 Ry     beta= 0.70
     CG style diagonalization
     c_bands:  3 eigenvalues not converged
     c_bands:  4 eigenvalues not converged
     ethr =  7.41E-05,  avg # of iterations =  3.7

     negative rho (up, down):  4.452E-01 2.246E-02

     total cpu time spent up to now is      237.9 secs

     total energy              =   -1940.21877960 Ry
     Harris-Foulkes estimate   =   -1940.23818031 Ry
     estimated scf accuracy    <       0.08886678 Ry

     total magnetization       =     1.00 Bohr mag/cell
     absolute magnetization    =     1.37 Bohr mag/cell

     iteration #  7     ecut=    40.00 Ry     beta= 0.70
     CG style diagonalization
     c_bands:  2 eigenvalues not converged
     ethr =  2.27E-05,  avg # of iterations =  3.4

     negative rho (up, down):  4.027E-01 6.902E-02

     total cpu time spent up to now is      270.5 secs

     total energy              =   -1940.20184237 Ry
     Harris-Foulkes estimate   =   -1940.23111987 Ry
     estimated scf accuracy    <       0.18752855 Ry

     total magnetization       =     1.00 Bohr mag/cell
     absolute magnetization    =     1.53 Bohr mag/cell

     iteration #  8     ecut=    40.00 Ry     beta= 0.70
     CG style diagonalization
     c_bands:  1 eigenvalues not converged
     ethr =  2.27E-05,  avg # of iterations =  3.1

     negative rho (up, down):  4.168E-01 6.189E-02

     total cpu time spent up to now is      299.1 secs

     total energy              =   -1940.22241959 Ry
     Harris-Foulkes estimate   =   -1940.22877548 Ry
     estimated scf accuracy    <       0.02563874 Ry

     total magnetization       =     1.00 Bohr mag/cell
     absolute magnetization    =     1.33 Bohr mag/cell

     iteration #  9     ecut=    40.00 Ry     beta= 0.70
     CG style diagonalization
     c_bands:  4 eigenvalues not converged
     c_bands:  1 eigenvalues not converged
     ethr =  6.56E-06,  avg # of iterations =  3.8

     negative rho (up, down):  4.310E-01 4.975E-02

     total cpu time spent up to now is      337.3 secs

     total energy              =   -1940.22589953 Ry
     Harris-Foulkes estimate   =   -1940.22617963 Ry
     estimated scf accuracy    <       0.00658892 Ry

     total magnetization       =     1.00 Bohr mag/cell
     absolute magnetization    =     1.29 Bohr mag/cell

     iteration # 10     ecut=    40.00 Ry     beta= 0.70
     CG style diagonalization
     c_bands:  5 eigenvalues not converged
     c_bands:  5 eigenvalues not converged
     ethr =  1.69E-06,  avg # of iterations =  3.8

     negative rho (up, down):  4.466E-01 3.631E-02

     total cpu time spent up to now is      374.6 secs

     total energy              =   -1940.22652127 Ry
     Harris-Foulkes estimate   =   -1940.22650749 Ry
     estimated scf accuracy    <       0.00411458 Ry

     total magnetization       =     1.00 Bohr mag/cell
     absolute magnetization    =     1.28 Bohr mag/cell

     iteration # 11     ecut=    40.00 Ry     beta= 0.70
     CG style diagonalization
     c_bands:  2 eigenvalues not converged
     c_bands:  5 eigenvalues not converged
     ethr =  1.05E-06,  avg # of iterations =  3.4

     negative rho (up, down):  4.573E-01 2.679E-02

     total cpu time spent up to now is      406.9 secs

     total energy              =   -1940.22673430 Ry
     Harris-Foulkes estimate   =   -1940.22677186 Ry
     estimated scf accuracy    <       0.00248546 Ry

     total magnetization       =     1.00 Bohr mag/cell
     absolute magnetization    =     1.26 Bohr mag/cell

     iteration # 12     ecut=    40.00 Ry     beta= 0.70
     CG style diagonalization
     c_bands:  2 eigenvalues not converged
     c_bands:  1 eigenvalues not converged
     ethr =  6.36E-07,  avg # of iterations =  3.3

     negative rho (up, down):  4.653E-01 2.019E-02

     total cpu time spent up to now is      437.0 secs

     total energy              =   -1940.22685000 Ry
     Harris-Foulkes estimate   =   -1940.22686722 Ry
     estimated scf accuracy    <       0.00136985 Ry

     total magnetization       =     1.00 Bohr mag/cell
     absolute magnetization    =     1.25 Bohr mag/cell

     iteration # 13     ecut=    40.00 Ry     beta= 0.70
     CG style diagonalization
     c_bands:  2 eigenvalues not converged
     ethr =  3.50E-07,  avg # of iterations =  3.2

     negative rho (up, down):  4.677E-01 1.778E-02

     total cpu time spent up to now is      466.7 secs

     total energy              =   -1940.22686929 Ry
     Harris-Foulkes estimate   =   -1940.22693043 Ry
     estimated scf accuracy    <       0.00079216 Ry

     total magnetization       =     1.00 Bohr mag/cell
     absolute magnetization    =     1.25 Bohr mag/cell

     iteration # 14     ecut=    40.00 Ry     beta= 0.70
     CG style diagonalization
     c_bands:  1 eigenvalues not converged
     ethr =  2.03E-07,  avg # of iterations =  3.0

     negative rho (up, down):  4.765E-01 1.119E-02

     total cpu time spent up to now is      494.4 secs

     total energy              =   -1940.22685758 Ry
     Harris-Foulkes estimate   =   -1940.22690081 Ry
     estimated scf accuracy    <       0.00044568 Ry

     total magnetization       =     1.00 Bohr mag/cell
     absolute magnetization    =     1.24 Bohr mag/cell

     iteration # 15     ecut=    40.00 Ry     beta= 0.70
     CG style diagonalization
     ethr =  1.14E-07,  avg # of iterations =  3.3

     negative rho (up, down):  4.789E-01 9.819E-03

     total cpu time spent up to now is      525.2 secs

     total energy              =   -1940.22694842 Ry
     Harris-Foulkes estimate   =   -1940.22694180 Ry
     estimated scf accuracy    <       0.00006360 Ry

     total magnetization       =     1.00 Bohr mag/cell
     absolute magnetization    =     1.23 Bohr mag/cell

     iteration # 16     ecut=    40.00 Ry     beta= 0.70
     CG style diagonalization
     ethr =  1.63E-08,  avg # of iterations =  3.3

     negative rho (up, down):  4.822E-01 8.670E-03

     total cpu time spent up to now is      556.0 secs

     total energy              =   -1940.22696599 Ry
     Harris-Foulkes estimate   =   -1940.22696170 Ry
     estimated scf accuracy    <       0.00002317 Ry

     total magnetization       =     1.00 Bohr mag/cell
     absolute magnetization    =     1.23 Bohr mag/cell

     iteration # 17     ecut=    40.00 Ry     beta= 0.70
     CG style diagonalization
     ethr =  5.93E-09,  avg # of iterations =  3.6

     negative rho (up, down):  4.821E-01 8.674E-03

     total cpu time spent up to now is      591.4 secs

     total energy              =   -1940.22698730 Ry
     Harris-Foulkes estimate   =   -1940.22698272 Ry
     estimated scf accuracy    <       0.00000196 Ry

     total magnetization       =     1.00 Bohr mag/cell
     absolute magnetization    =     1.23 Bohr mag/cell

     iteration # 18     ecut=    40.00 Ry     beta= 0.70
     CG style diagonalization
     ethr =  5.01E-10,  avg # of iterations =  3.7

     negative rho (up, down):  4.822E-01 8.676E-03

     total cpu time spent up to now is      626.5 secs

     total energy              =   -1940.22699408 Ry
     Harris-Foulkes estimate   =   -1940.22698971 Ry
     estimated scf accuracy    <       0.00000247 Ry

     total magnetization       =     1.00 Bohr mag/cell
     absolute magnetization    =     1.22 Bohr mag/cell

     iteration # 19     ecut=    40.00 Ry     beta= 0.70
     CG style diagonalization
     ethr =  5.01E-10,  avg # of iterations =  3.4

     negative rho (up, down):  4.822E-01 8.689E-03

     total cpu time spent up to now is      661.4 secs

     total energy              =   -1940.22699984 Ry
     Harris-Foulkes estimate   =   -1940.22699816 Ry
     estimated scf accuracy    <       0.00000084 Ry

     total magnetization       =     1.00 Bohr mag/cell
     absolute magnetization    =     1.22 Bohr mag/cell

     iteration # 20     ecut=    40.00 Ry     beta= 0.70
     CG style diagonalization
     ethr =  2.14E-10,  avg # of iterations =  4.0

     negative rho (up, down):  4.822E-01 8.706E-03

     total cpu time spent up to now is      700.4 secs

     total energy              =   -1940.22700389 Ry
     Harris-Foulkes estimate   =   -1940.22700723 Ry
     estimated scf accuracy    <       0.00000067 Ry

     total magnetization       =     1.00 Bohr mag/cell
     absolute magnetization    =     1.21 Bohr mag/cell

     iteration # 21     ecut=    40.00 Ry     beta= 0.70
     CG style diagonalization
     ethr =  1.71E-10,  avg # of iterations =  4.0

     negative rho (up, down):  4.822E-01 8.700E-03

     total cpu time spent up to now is      740.2 secs

     total energy              =   -1940.22701172 Ry
     Harris-Foulkes estimate   =   -1940.22701390 Ry
     estimated scf accuracy    <       0.00000021 Ry

     total magnetization       =     1.00 Bohr mag/cell
     absolute magnetization    =     1.21 Bohr mag/cell

     iteration # 22     ecut=    40.00 Ry     beta= 0.70
     CG style diagonalization
     ethr =  5.31E-11,  avg # of iterations =  4.2

     negative rho (up, down):  4.822E-01 8.705E-03

     total cpu time spent up to now is      782.5 secs

     total energy              =   -1940.22701537 Ry
     Harris-Foulkes estimate   =   -1940.22701594 Ry
     estimated scf accuracy    <       0.00000010 Ry

     total magnetization       =     1.00 Bohr mag/cell
     absolute magnetization    =     1.21 Bohr mag/cell

     iteration # 23     ecut=    40.00 Ry     beta= 0.70
     CG style diagonalization
     ethr =  2.52E-11,  avg # of iterations =  4.0

     negative rho (up, down):  4.822E-01 8.709E-03

     total cpu time spent up to now is      821.8 secs

     total energy              =   -1940.22701624 Ry
     Harris-Foulkes estimate   =   -1940.22701631 Ry
     estimated scf accuracy    <       0.00000002 Ry

     total magnetization       =     1.00 Bohr mag/cell
     absolute magnetization    =     1.21 Bohr mag/cell

     iteration # 24     ecut=    40.00 Ry     beta= 0.70
     CG style diagonalization
     ethr =  5.76E-12,  avg # of iterations =  3.9

     negative rho (up, down):  4.822E-01 8.704E-03

     total cpu time spent up to now is      859.4 secs

     total energy              =   -1940.22701636 Ry
     Harris-Foulkes estimate   =   -1940.22701635 Ry
     estimated scf accuracy    <          3.6E-09 Ry

     total magnetization       =     1.00 Bohr mag/cell
     absolute magnetization    =     1.21 Bohr mag/cell

     iteration # 25     ecut=    40.00 Ry     beta= 0.70
     CG style diagonalization
     ethr =  9.31E-13,  avg # of iterations =  4.0

     negative rho (up, down):  4.822E-01 8.703E-03

     total cpu time spent up to now is      899.0 secs

     total energy              =   -1940.22701635 Ry
     Harris-Foulkes estimate   =   -1940.22701637 Ry
     estimated scf accuracy    <          1.6E-09 Ry

     total magnetization       =     1.00 Bohr mag/cell
     absolute magnetization    =     1.21 Bohr mag/cell

     iteration # 26     ecut=    40.00 Ry     beta= 0.70
     CG style diagonalization
     ethr =  4.06E-13,  avg # of iterations =  3.8

     negative rho (up, down):  4.822E-01 8.703E-03

     total cpu time spent up to now is      936.2 secs

     total energy              =   -1940.22701636 Ry
     Harris-Foulkes estimate   =   -1940.22701636 Ry
     estimated scf accuracy    <          4.6E-10 Ry

     total magnetization       =     1.00 Bohr mag/cell
     absolute magnetization    =     1.21 Bohr mag/cell

     iteration # 27     ecut=    40.00 Ry     beta= 0.70
     CG style diagonalization
     ethr =  1.18E-13,  avg # of iterations =  3.8

     negative rho (up, down):  4.822E-01 8.702E-03

     total cpu time spent up to now is      972.6 secs

     total energy              =   -1940.22701636 Ry
     Harris-Foulkes estimate   =   -1940.22701636 Ry
     estimated scf accuracy    <          1.1E-10 Ry

     total magnetization       =     1.00 Bohr mag/cell
     absolute magnetization    =     1.21 Bohr mag/cell

     iteration # 28     ecut=    40.00 Ry     beta= 0.70
     CG style diagonalization
     ethr =  1.00E-13,  avg # of iterations =  3.4

     negative rho (up, down):  4.822E-01 8.703E-03
 
     Magnetic moment per site:
     atom:    1    charge:    0.8306    magn:    0.0001    constr:    0.0000
     atom:    2    charge:    0.8260    magn:    0.0013    constr:    0.0000
     atom:    3    charge:    0.8268    magn:    0.0008    constr:    0.0000
     atom:    4    charge:    0.8297    magn:    0.0000    constr:    0.0000
     atom:    5    charge:    0.8321    magn:    0.0008    constr:    0.0000
     atom:    6    charge:    0.8302    magn:   -0.0001    constr:    0.0000
     atom:    7    charge:    0.8311    magn:    0.0008    constr:    0.0000
     atom:    8    charge:    0.8286    magn:    0.0007    constr:    0.0000
     atom:    9    charge:    0.8313    magn:    0.0009    constr:    0.0000
     atom:   10    charge:    0.8215    magn:    0.0064    constr:    0.0000
     atom:   11    charge:    0.8258    magn:    0.0004    constr:    0.0000
     atom:   12    charge:    0.8343    magn:    0.0009    constr:    0.0000
     atom:   13    charge:    0.8325    magn:   -0.0001    constr:    0.0000
     atom:   14    charge:    0.8302    magn:   -0.0001    constr:    0.0000
     atom:   15    charge:    0.8296    magn:    0.0006    constr:    0.0000
     atom:   16    charge:    0.8326    magn:    0.0046    constr:    0.0000
     atom:   17    charge:    0.8408    magn:    0.0154    constr:    0.0000
     atom:   18    charge:    0.8289    magn:    0.0132    constr:    0.0000
     atom:   19    charge:    0.8441    magn:    0.0072    constr:    0.0000
     atom:   20    charge:    0.8343    magn:    0.0009    constr:    0.0000
     atom:   21    charge:    0.8321    magn:    0.0008    constr:    0.0000
     atom:   22    charge:    0.8278    magn:    0.0001    constr:    0.0000
     atom:   23    charge:    0.8243    magn:    0.0003    constr:    0.0000
     atom:   24    charge:    0.8254    magn:    0.0079    constr:    0.0000
     atom:   25    charge:    1.6766    magn:    0.1736    constr:    0.0000
     atom:   26    charge:    0.8289    magn:    0.0132    constr:    0.0000
     atom:   27    charge:    0.8258    magn:    0.0004    constr:    0.0000
     atom:   28    charge:    0.8297    magn:    0.0000    constr:    0.0000
     atom:   29    charge:    0.8273    magn:    0.0006    constr:    0.0000
     atom:   30    charge:    0.8286    magn:    0.0004    constr:    0.0000
     atom:   31    charge:    0.8291    magn:    0.0026    constr:    0.0000
     atom:   32    charge:    0.8254    magn:    0.0079    constr:    0.0000
     atom:   33    charge:    0.8408    magn:    0.0154    constr:    0.0000
     atom:   34    charge:    0.8215    magn:    0.0064    constr:    0.0000
     atom:   35    charge:    0.8268    magn:    0.0008    constr:    0.0000
     atom:   36    charge:    0.8252    magn:   -0.0000    constr:    0.0000
     atom:   37    charge:    0.8258    magn:    0.0000    constr:    0.0000
     atom:   38    charge:    0.8286    magn:    0.0004    constr:    0.0000
     atom:   39    charge:    0.8243    magn:    0.0003    constr:    0.0000
     atom:   40    charge:    0.8326    magn:    0.0046    constr:    0.0000
     atom:   41    charge:    0.8313    magn:    0.0009    constr:    0.0000
     atom:   42    charge:    0.8260    magn:    0.0013    constr:    0.0000
     atom:   43    charge:    0.8251    magn:    0.0011    constr:    0.0000
     atom:   44    charge:    0.8252    magn:   -0.0000    constr:    0.0000
     atom:   45    charge:    0.8273    magn:    0.0006    constr:    0.0000
     atom:   46    charge:    0.8278    magn:    0.0001    constr:    0.0000
     atom:   47    charge:    0.8296    magn:    0.0006    constr:    0.0000
     atom:   48    charge:    0.8286    magn:    0.0007    constr:    0.0000
     atom:   49    charge:    0.8306    magn:    0.0001    constr:    0.0000
     atom:   50    charge:    2.7505    magn:   -0.0004    constr:    0.0000
     atom:   51    charge:    2.7484    magn:   -0.0005    constr:    0.0000
     atom:   52    charge:    2.7406    magn:   -0.0019    constr:    0.0000
     atom:   53    charge:    2.7498    magn:   -0.0003    constr:    0.0000
     atom:   54    charge:    2.7500    magn:   -0.0004    constr:    0.0000
     atom:   55    charge:    2.7466    magn:    0.0004    constr:    0.0000
     atom:   56    charge:    2.7461    magn:    0.0002    constr:    0.0000
     atom:   57    charge:    2.7465    magn:    0.0017    constr:    0.0000
     atom:   58    charge:    2.7462    magn:    0.0006    constr:    0.0000
     atom:   59    charge:    2.7424    magn:   -0.0033    constr:    0.0000
     atom:   60    charge:    2.7346    magn:   -0.0044    constr:    0.0000
     atom:   61    charge:    2.7505    magn:    0.0010    constr:    0.0000
     atom:   62    charge:    2.7464    magn:    0.0020    constr:    0.0000
     atom:   63    charge:    2.7466    magn:    0.0004    constr:    0.0000
     atom:   64    charge:    2.7521    magn:   -0.0003    constr:    0.0000
     atom:   65    charge:    2.7516    magn:    0.0012    constr:    0.0000
     atom:   66    charge:    2.7429    magn:    0.0063    constr:    0.0000
     atom:   67    charge:    1.6721    magn:   -0.0031    constr:    0.0000
     atom:   68    charge:    2.7608    magn:    0.0097    constr:    0.0000
     atom:   69    charge:    2.7505    magn:    0.0010    constr:    0.0000
     atom:   70    charge:    2.7500    magn:   -0.0004    constr:    0.0000
     atom:   71    charge:    2.7504    magn:   -0.0001    constr:    0.0000
     atom:   72    charge:    2.7459    magn:   -0.0003    constr:    0.0000
     atom:   73    charge:    2.7426    magn:   -0.0019    constr:    0.0000
     atom:   74    charge:    2.7325    magn:   -0.0022    constr:    0.0000
     atom:   75    charge:    1.6723    magn:   -0.0031    constr:    0.0000
     atom:   76    charge:    2.7346    magn:   -0.0044    constr:    0.0000
     atom:   77    charge:    2.7498    magn:   -0.0003    constr:    0.0000
     atom:   78    charge:    2.7487    magn:   -0.0003    constr:    0.0000
     atom:   79    charge:    2.7472    magn:   -0.0002    constr:    0.0000
     atom:   80    charge:    2.7456    magn:   -0.0003    constr:    0.0000
     atom:   81    charge:    2.7426    magn:   -0.0019    constr:    0.0000
     atom:   82    charge:    2.7429    magn:    0.0063    constr:    0.0000
     atom:   83    charge:    2.7424    magn:   -0.0033    constr:    0.0000
     atom:   84    charge:    2.7406    magn:   -0.0019    constr:    0.0000
     atom:   85    charge:    2.7462    magn:   -0.0005    constr:    0.0000
     atom:   86    charge:    2.7470    magn:    0.0001    constr:    0.0000
     atom:   87    charge:    2.7472    magn:   -0.0002    constr:    0.0000
     atom:   88    charge:    2.7459    magn:   -0.0003    constr:    0.0000
     atom:   89    charge:    2.7516    magn:    0.0012    constr:    0.0000
     atom:   90    charge:    2.7462    magn:    0.0006    constr:    0.0000
     atom:   91    charge:    2.7484    magn:   -0.0005    constr:    0.0000
     atom:   92    charge:    2.7518    magn:   -0.0002    constr:    0.0000
     atom:   93    charge:    2.7461    magn:   -0.0005    constr:    0.0000
     atom:   94    charge:    2.7487    magn:   -0.0003    constr:    0.0000
     atom:   95    charge:    2.7504    magn:   -0.0001    constr:    0.0000
     atom:   96    charge:    2.7521    magn:   -0.0003    constr:    0.0000
     atom:   97    charge:    2.7466    magn:    0.0017    constr:    0.0000
     atom:   98    charge:    2.7505    magn:   -0.0004    constr:    0.0000

     total cpu time spent up to now is     1004.4 secs

     End of self-consistent calculation

 ------ SPIN UP ------------


          k = 0.0000 0.0000 0.0000 ( 77440 PWs)   bands (ev):

   -21.7343 -21.4752 -21.3702 -21.3676 -21.3504 -21.3194 -21.2308 -20.7961
   -20.6345 -20.6304 -20.6116 -20.5374 -20.5189 -20.3921 -20.2770 -20.2744
   -20.2544 -20.1342 -20.0878 -19.5384 -19.3826 -19.3767 -19.3754 -19.3645
   -19.3625 -19.3548 -19.3547 -19.3378 -19.3048 -19.1490 -19.1454 -19.0131
   -18.9630 -18.9549 -18.9320 -18.7645 -18.7494 -18.5252 -18.5227 -18.5152
   -18.5006 -18.4377 -18.4337 -18.3774 -18.3608 -18.3256 -18.3200 -17.0157
   -15.0903 -13.0981 -12.7506 -12.7490 -12.7387 -12.7061 -12.6952 -12.6445
   -12.5431 -12.5144 -12.5139 -12.4742 -12.4131 -12.1300 -12.0566 -12.0412
   -12.0237 -11.9656 -11.9517 -11.5210 -11.4019 -11.3926 -11.3719 -11.3671
   -11.3632 -11.3560 -11.3546 -11.3100 -11.2878 -11.1011 -11.0649 -10.8552
   -10.7064 -10.6960 -10.6735 -10.6617 -10.5195 -10.0512 -10.0329  -9.9867
    -9.9209  -9.8658  -9.8210  -9.3675  -9.3251  -9.3050  -9.2807  -9.2651
    -9.2611  -9.2229  -9.0225  -8.9156  -8.9144  -8.8857  -8.8843  -8.8803
    -8.8712  -8.8505  -8.8396  -8.8385  -8.8256  -8.8135  -8.8069  -8.8040
    -8.8030  -8.8015  -8.7867  -8.7746  -8.7256  -8.7029  -8.6714  -8.6550
    -8.4695  -8.4653  -8.1851  -8.1848  -8.1642  -8.1302  -8.0780  -7.8928
    -7.8884  -7.8097  -7.8053  -7.7906  -7.7255  -7.7165  -7.5341  -7.4888
    -7.4853  -7.4436  -7.4263  -7.4248  -7.4159  -7.4028  -7.3833  -7.3395
    -7.3284  -7.3241  -7.3077  -7.3020  -7.2321  -7.2224  -7.2044  -7.0519
    -7.0135  -6.9985  -6.9541  -6.8214  -6.6683  -6.5664  -6.2116  -6.1713
    -6.1627  -6.1357  -6.1255  -6.0523  -6.0481  -6.0467  -6.0352  -6.0340
    -6.0302  -6.0255  -6.0193  -5.9909  -5.8691  -5.8470  -5.8079  -5.7267
    -5.5090  -5.4398  -5.4347  -5.4186  -5.3475  -5.2504  -5.2030  -5.1641
    -4.7725  -4.7667  -4.7492  -4.7481  -4.6814  -4.6401  -4.5434  -4.5165
    -4.4797  -4.4740  -4.3266  -3.5479  -0.0957   0.1801   0.7045   0.7082
     0.7209   0.7214   0.7314   0.7432   0.7981   0.8000   0.8174   0.8190
     0.8190   0.8323   0.8411   0.8615   0.8698   0.8791   0.9069   0.9365
     0.9367   1.1274   1.2140   1.2217   1.2399   1.2662   1.2947   1.3284
     1.3287   1.3311   1.3415   1.3445   1.3753   1.4404   1.4408   1.4422
     1.4508   1.4539   1.4731   1.8829   2.0984   2.1019   2.1040   2.1092
     2.1155   2.1161   2.1319   2.2081   2.2970

 ------ SPIN DOWN ----------


          k = 0.0000 0.0000 0.0000 ( 77440 PWs)   bands (ev):

   -21.7254 -21.4382 -21.3684 -21.3665 -21.3484 -21.3147 -21.2093 -20.7688
   -20.6333 -20.6269 -20.6070 -20.5346 -20.5125 -20.3840 -20.2736 -20.2711
   -20.2501 -20.1296 -20.0703 -19.5223 -19.3815 -19.3748 -19.3746 -19.3631
   -19.3606 -19.3545 -19.3531 -19.3337 -19.2984 -19.1466 -19.1399 -19.0090
   -18.9624 -18.9530 -18.9284 -18.7620 -18.7409 -18.5246 -18.5197 -18.5141
   -18.4981 -18.4362 -18.4330 -18.3759 -18.3608 -18.3242 -18.3178 -16.8928
   -15.0338 -13.0090 -12.7451 -12.7451 -12.7335 -12.7023 -12.6917 -12.6369
   -12.5394 -12.5084 -12.5080 -12.4626 -12.3986 -12.1181 -12.0517 -12.0354
   -12.0207 -11.9587 -11.9421 -11.4977 -11.3869 -11.3845 -11.3692 -11.3649
   -11.3604 -11.3525 -11.3520 -11.3002 -11.2763 -11.0923 -11.0456 -10.8368
   -10.7019 -10.6925 -10.6636 -10.6563 -10.5038 -10.0422 -10.0244  -9.9801
    -9.9109  -9.8584  -9.8105  -9.3589  -9.3133  -9.2845  -9.2761  -9.2604
    -9.2580  -9.2204  -9.0097  -8.9089  -8.9025  -8.8848  -8.8820  -8.8762
    -8.8687  -8.8461  -8.8358  -8.8231  -8.8105  -8.8051  -8.7995  -8.7990
    -8.7982  -8.7948  -8.7708  -8.7548  -8.7182  -8.6592  -8.6426  -8.6174
    -8.4613  -8.4542  -8.1847  -8.1830  -8.1631  -8.1182  -8.0696  -7.8873
    -7.8141  -7.8013  -7.7952  -7.7737  -7.7089  -7.6783  -7.5245  -7.4841
    -7.4815  -7.4406  -7.4248  -7.4235  -7.3998  -7.3814  -7.3637  -7.3374
    -7.3152  -7.3123  -7.3002  -7.2910  -7.1982  -7.1930  -7.1676  -7.0408
    -7.0109  -6.9968  -6.9413  -6.8074  -6.6629  -6.5590  -6.1678  -6.1617
    -6.1342  -6.1161  -6.1133  -6.0469  -6.0424  -6.0403  -6.0283  -6.0253
    -6.0199  -6.0197  -6.0046  -5.9651  -5.8416  -5.8213  -5.7871  -5.7188
    -5.4760  -5.4340  -5.4232  -5.4067  -5.3107  -5.2317  -5.1915  -5.1417
    -4.7621  -4.7528  -4.7420  -4.7413  -4.6678  -4.6348  -4.5281  -4.5109
    -4.4751  -4.4684  -4.2454  -3.4438   0.1888   0.4400   0.7124   0.7338
     0.7413   0.7472   0.7611   0.7783   0.7965   0.8186   0.8199   0.8217
     0.8254   0.8425   0.8491   0.8823   0.8959   0.9207   0.9496   0.9515
     1.0127   1.1766   1.2522   1.2643   1.2864   1.3018   1.3151   1.3282
     1.3288   1.3318   1.3498   1.3501   1.4022   1.4390   1.4393   1.4409
     1.4505   1.4532   1.4797   1.8878   2.1060   2.1066   2.1159   2.1288
     2.1353   2.1501   2.1950   2.3301   2.3409

     highest occupied, lowest unoccupied level (ev):    -4.2454   -3.5479

!    total energy              =   -1940.22701637 Ry
     Harris-Foulkes estimate   =   -1940.22701636 Ry
     estimated scf accuracy    <          7.8E-11 Ry

     total all-electron energy =     -7770.051493 Ry

     The total energy is the sum of the following terms:

     one-electron contribution =  -10647.16866679 Ry
     hartree contribution      =    5409.30953500 Ry
     xc contribution           =    -430.70706365 Ry
     ewald contribution        =    4371.78556769 Ry
     DFT-D3 Dispersion         =      -0.27018394 Ry
     one-center paw contrib.   =    -643.17620468 Ry

     total magnetization       =     1.00 Bohr mag/cell
     absolute magnetization    =     1.21 Bohr mag/cell

     convergence has been achieved in  28 iterations

     negative rho (up, down):  4.822E-01 8.703E-03

     Forces acting on atoms (cartesian axes, Ry/au):

     atom    1 type  1   force =    -0.00003021    0.00001891    0.00000000
     atom    2 type  1   force =     0.00005067    0.00002533    0.00000000
     atom    3 type  1   force =     0.00003512    0.00005346    0.00000000
     atom    4 type  1   force =     0.00003976   -0.00001860    0.00000000
     atom    5 type  1   force =     0.00002545   -0.00009014    0.00000000
     atom    6 type  1   force =    -0.00003109   -0.00000236    0.00000000
     atom    7 type  1   force =    -0.00008034    0.00006564    0.00000000
     atom    8 type  1   force =    -0.00005117    0.00008009    0.00000000
     atom    9 type  1   force =    -0.00000564    0.00000447    0.00000000
     atom   10 type  1   force =     0.00003129    0.00001579    0.00000000
     atom   11 type  1   force =    -0.00000526    0.00002006    0.00000000
     atom   12 type  1   force =     0.00003914   -0.00001944    0.00000000
     atom   13 type  1   force =     0.00004853   -0.00002387    0.00000000
     atom   14 type  1   force =    -0.00001211    0.00004851    0.00000000
     atom   15 type  1   force =    -0.00002286    0.00006092    0.00000000
     atom   16 type  1   force =    -0.00000786    0.00006017    0.00000000
     atom   17 type  1   force =     0.00005609   -0.00001233    0.00000000
     atom   18 type  1   force =     0.00001052    0.00001855    0.00000000
     atom   19 type  1   force =    -0.00005358    0.00002431    0.00000000
     atom   20 type  1   force =     0.00002476   -0.00002517    0.00000000
     atom   21 type  1   force =     0.00007868    0.00003506    0.00000000
     atom   22 type  1   force =     0.00005371    0.00002763    0.00000000
     atom   23 type  1   force =    -0.00004524    0.00005903    0.00000000
     atom   24 type  1   force =     0.00002727   -0.00002769    0.00000000
     atom   25 type  4   force =     0.00018482    0.00003204    0.00000000
     atom   26 type  1   force =    -0.00005715   -0.00001474    0.00000000
     atom   27 type  1   force =    -0.00003132   -0.00001403    0.00000000
     atom   28 type  1   force =     0.00001820   -0.00001890    0.00000000
     atom   29 type  1   force =     0.00001675   -0.00000731    0.00000000
     atom   30 type  1   force =    -0.00006532    0.00002456    0.00000000
     atom   31 type  1   force =    -0.00005888    0.00003758    0.00000000
     atom   32 type  1   force =     0.00003317   -0.00001741    0.00000000
     atom   33 type  1   force =     0.00008333   -0.00003362    0.00000000
     atom   34 type  1   force =     0.00000295   -0.00003509    0.00000000
     atom   35 type  1   force =    -0.00003685   -0.00004731    0.00000000
     atom   36 type  1   force =     0.00000108   -0.00001873    0.00000000
     atom   37 type  1   force =    -0.00000601    0.00000651    0.00000000
     atom   38 type  1   force =    -0.00004910    0.00003876    0.00000000
     atom   39 type  1   force =    -0.00007537   -0.00000454    0.00000000
     atom   40 type  1   force =    -0.00003740   -0.00002653    0.00000000
     atom   41 type  1   force =    -0.00000013    0.00000036    0.00000000
     atom   42 type  1   force =     0.00000953   -0.00004129    0.00000000
     atom   43 type  1   force =     0.00002593    0.00000280    0.00000000
     atom   44 type  1   force =     0.00003596    0.00002327    0.00000000
     atom   45 type  1   force =     0.00003100   -0.00001346    0.00000000
     atom   46 type  1   force =     0.00001475   -0.00007164    0.00000000
     atom   47 type  1   force =    -0.00005265   -0.00001397    0.00000000
     atom   48 type  1   force =    -0.00008443    0.00000974    0.00000000
     atom   49 type  1   force =    -0.00001805    0.00004293    0.00000000
     atom   50 type  2   force =    -0.00000903   -0.00000022    0.00000000
     atom   51 type  2   force =     0.00000485   -0.00000352    0.00000000
     atom   52 type  2   force =     0.00002729    0.00000927    0.00000000
     atom   53 type  2   force =     0.00000102    0.00001205    0.00000000
     atom   54 type  2   force =    -0.00000977    0.00003245    0.00000000
     atom   55 type  2   force =    -0.00002391    0.00000103    0.00000000
     atom   56 type  2   force =    -0.00000429   -0.00000597    0.00000000
     atom   57 type  2   force =    -0.00001835   -0.00000134    0.00000000
     atom   58 type  2   force =     0.00001674    0.00001307    0.00000000
     atom   59 type  2   force =     0.00003196   -0.00000328    0.00000000
     atom   60 type  2   force =    -0.00000097   -0.00000989    0.00000000
     atom   61 type  2   force =    -0.00001561    0.00000441    0.00000000
     atom   62 type  2   force =    -0.00001737    0.00001735    0.00000000
     atom   63 type  2   force =    -0.00000665    0.00001399    0.00000000
     atom   64 type  2   force =    -0.00000560    0.00000579    0.00000000
     atom   65 type  2   force =    -0.00001396    0.00003091    0.00000000
     atom   66 type  2   force =     0.00004447   -0.00002166    0.00000000
     atom   67 type  3   force =     0.00000591   -0.00004263    0.00000000
     atom   68 type  2   force =    -0.00000615    0.00003791    0.00000000
     atom   69 type  2   force =     0.00000975    0.00002344    0.00000000
     atom   70 type  2   force =    -0.00001370   -0.00000837    0.00000000
     atom   71 type  2   force =     0.00002521   -0.00002314    0.00000000
     atom   72 type  2   force =    -0.00002910    0.00000807    0.00000000
     atom   73 type  2   force =    -0.00001473    0.00001955    0.00000000
     atom   74 type  2   force =     0.00004182   -0.00003839    0.00000000
     atom   75 type  5   force =     0.00002670   -0.00013743    0.00000000
     atom   76 type  2   force =     0.00001068    0.00000741    0.00000000
     atom   77 type  2   force =     0.00000332   -0.00000567    0.00000000
     atom   78 type  2   force =     0.00002710   -0.00002790    0.00000000
     atom   79 type  2   force =     0.00001109   -0.00001879    0.00000000
     atom   80 type  2   force =    -0.00005657    0.00002839    0.00000000
     atom   81 type  2   force =    -0.00002133   -0.00000363    0.00000000
     atom   82 type  2   force =     0.00000534   -0.00001486    0.00000000
     atom   83 type  2   force =     0.00001487   -0.00002623    0.00000000
     atom   84 type  2   force =     0.00000171   -0.00003667    0.00000000
     atom   85 type  2   force =     0.00000180   -0.00003886    0.00000000
     atom   86 type  2   force =     0.00001465   -0.00002414    0.00000000
     atom   87 type  2   force =     0.00000807   -0.00000891    0.00000000
     atom   88 type  2   force =    -0.00003043    0.00002456    0.00000000
     atom   89 type  2   force =    -0.00004257    0.00001049    0.00000000
     atom   90 type  2   force =    -0.00001579   -0.00001741    0.00000000
     atom   91 type  2   force =    -0.00000867   -0.00001225    0.00000000
     atom   92 type  2   force =    -0.00002866   -0.00000257    0.00000000
     atom   93 type  2   force =     0.00001809   -0.00000613    0.00000000
     atom   94 type  2   force =     0.00002166   -0.00001766    0.00000000
     atom   95 type  2   force =     0.00001704   -0.00000403    0.00000000
     atom   96 type  2   force =    -0.00002026    0.00001255    0.00000000
     atom   97 type  2   force =    -0.00001906    0.00001901    0.00000000
     atom   98 type  2   force =    -0.00001905   -0.00000850    0.00000000

     Total force =     0.000493     Total SCF correction =     0.000019


     Computing stress (Cartesian axis) and pressure


     negative rho (up, down):  4.822E-01 8.703E-03
          total   stress  (Ry/bohr**3)                   (kbar)     P=   -0.16
   0.00000003   0.00000001   0.00000000          0.01      0.00      0.00
   0.00000001   0.00000003   0.00000000          0.00      0.01      0.00
   0.00000000   0.00000000  -0.00000334          0.00      0.00     -0.49


     BFGS Geometry Optimization

     number of scf cycles    =   1
     number of bfgs steps    =   0

     enthalpy new            =   -1940.2270163712 Ry

     new trust radius        =       0.0001875745 bohr
     new conv_thr            =            1.0E-10 Ry

     new unit-cell volume =  36225.78847 a.u.^3 (  5368.10794 Ang^3 )
     density =      0.36316 g/cm^3

CELL_PARAMETERS (alat= 33.23461096)
   1.001325925  -0.000545530   0.000000000
  -0.501135402   0.866900303   0.000000000
   0.000000000   0.000000000   1.137203616

ATOMIC_POSITIONS (crystal)
B        0.047371248   0.094772464   0.500000000
B        0.047558398   0.237848066   0.500000000
B        0.047472774   0.381061804   0.500000000
B        0.047184765   0.523844588   0.500000000
B        0.047458984   0.666697720   0.500000000
B        0.047769009   0.809661661   0.500000000
B        0.047661087   0.952339143   0.500000000
B        0.190065391   0.094515673   0.500000000
B        0.189525899   0.236864240   0.500000000
B        0.190402714   0.380785913   0.500000000
B        0.189486473   0.524309652   0.500000000
B        0.189458565   0.667032335   0.500000000
B        0.190230485   0.809768769   0.500000000
B        0.190337851   0.952230570   0.500000000
B        0.333361091   0.094591772   0.500000000
B        0.333038045   0.236308413   0.500000000
B        0.331777740   0.377245786   0.500000000
B        0.332575069   0.526921687   0.500000000
B        0.331611477   0.668387480   0.500000000
B        0.332966561   0.810540746   0.500000000
B        0.333301619   0.952540727   0.500000000
B        0.476321391   0.095156446   0.500000000
B        0.476434747   0.237856258   0.500000000
B        0.476517387   0.380814162   0.500000000
C2       0.477768193   0.522236099   0.500000000
B        0.473077270   0.667424931   0.500000000
B        0.475689326   0.810513090   0.500000000
B        0.476154881   0.952815298   0.500000000
B        0.619008177   0.095164399   0.500000000
B        0.619230536   0.237931085   0.500000000
B        0.619319633   0.380681117   0.500000000
B        0.619186178   0.523483000   0.500000000
B        0.622755159   0.668222860   0.500000000
B        0.619213954   0.809597507   0.500000000
B        0.618938038   0.952527464   0.500000000
B        0.761915494   0.095153002   0.500000000
B        0.761967764   0.238033091   0.500000000
B        0.762069724   0.380770075   0.500000000
B        0.762144005   0.523565311   0.500000000
B        0.763691856   0.666962125   0.500000000
B        0.763135990   0.810474330   0.500000000
B        0.762152392   0.952442137   0.500000000
B        0.904885823   0.095114942   0.500000000
B        0.904847621   0.238084974   0.500000000
B        0.904836303   0.380992092   0.500000000
B        0.904843888   0.523678442   0.500000000
B        0.905407969   0.666638454   0.500000000
B        0.905484360   0.809934575   0.500000000
B        0.905228077   0.952629304   0.500000000
N        0.095032381   0.047329798   0.500000000
N        0.094643349   0.189795740   0.500000000
N        0.095340685   0.333404844   0.500000000
N        0.094607553   0.476193979   0.500000000
N        0.094548724   0.619007421   0.500000000
N        0.095087015   0.761985896   0.500000000
N        0.095215874   0.904783214   0.500000000
N        0.238002134   0.047307682   0.500000000
N        0.237651348   0.189605581   0.500000000
N        0.236936677   0.331800088   0.500000000
N        0.237734084   0.476899027   0.500000000
N        0.236411101   0.619461631   0.500000000
N        0.237630742   0.762368588   0.500000000
N        0.238013480   0.904912116   0.500000000
N        0.381121368   0.047482441   0.500000000
N        0.381074312   0.189481799   0.500000000
N        0.380433171   0.331030075   0.500000000
C1       0.384272742   0.477208858   0.500000000
N        0.378182881   0.621817648   0.500000000
N        0.380537947   0.763588443   0.500000000
N        0.380992349   0.905450799   0.500000000
N        0.523937112   0.047803319   0.500000000
N        0.524025632   0.190392627   0.500000000
N        0.524121034   0.333268764   0.500000000
N        0.524172775   0.475827378   0.500000000
C3       0.522789645   0.615724781   0.500000000
N        0.523100670   0.762265971   0.500000000
N        0.523805915   0.905392343   0.500000000
N        0.666672853   0.047596265   0.500000000
N        0.666774848   0.190334014   0.500000000
N        0.666902370   0.333098332   0.500000000
N        0.666731801   0.475879446   0.500000000
N        0.668969676   0.619567515   0.500000000
N        0.668199976   0.763063737   0.500000000
N        0.666595144   0.904659421   0.500000000
N        0.809595533   0.047591130   0.500000000
N        0.809589225   0.190410643   0.500000000
N        0.809666380   0.333225667   0.500000000
N        0.809607787   0.475974906   0.500000000
N        0.810518095   0.618926051   0.500000000
N        0.810394214   0.762348850   0.500000000
N        0.810204116   0.905356686   0.500000000
N        0.952426555   0.047573014   0.500000000
N        0.952408664   0.190404302   0.500000000
N        0.952403600   0.333327117   0.500000000
N        0.952196700   0.476063097   0.500000000
N        0.952517189   0.618878598   0.500000000
N        0.952691563   0.761997421   0.500000000
N        0.952669626   0.904967159   0.500000000



     Writing output data file C2Cn.save/
     NEW-OLD atomic charge density approx. for the potential
     NEW k-points:
   0.0000000   0.0000000   0.0000000   1.0000000
   0.0000000   0.0000000   0.0000000   1.0000000

     Check: negative core charge=   -0.000006

     negative rho (up, down):  4.822E-01 4.349E-03
     extrapolated charge  391.00068, renormalised to  391.00000

     total cpu time spent up to now is     1027.2 secs

     Self-consistent Calculation

     iteration #  1     ecut=    40.00 Ry     beta= 0.70
     CG style diagonalization
     ethr =  1.00E-06,  avg # of iterations =  2.0

     Threshold (ethr) on eigenvalues was too large:
     Diagonalizing with lowered threshold

     CG style diagonalization
     ethr =  1.54E-11,  avg # of iterations = 17.1

     negative rho (up, down):  4.822E-01 8.003E-03

     total cpu time spent up to now is     1249.5 secs

     total energy              =   -1940.22701778 Ry
     Harris-Foulkes estimate   =   -1940.20917016 Ry
     estimated scf accuracy    <       0.00000010 Ry

     total magnetization       =     1.00 Bohr mag/cell
     absolute magnetization    =     1.21 Bohr mag/cell

     iteration #  2     ecut=    40.00 Ry     beta= 0.70
     CG style diagonalization
     ethr =  2.53E-11,  avg # of iterations =  3.9

     negative rho (up, down):  4.822E-01 8.122E-03

     total cpu time spent up to now is     1288.1 secs

     total energy              =   -1940.22701755 Ry
     Harris-Foulkes estimate   =   -1940.22701790 Ry
     estimated scf accuracy    <       0.00000049 Ry

     total magnetization       =     1.00 Bohr mag/cell
     absolute magnetization    =     1.21 Bohr mag/cell

     iteration #  3     ecut=    40.00 Ry     beta= 0.70
     CG style diagonalization
     ethr =  2.53E-11,  avg # of iterations =  3.4

     negative rho (up, down):  4.822E-01 8.332E-03

     total cpu time spent up to now is     1319.8 secs

     total energy              =   -1940.22701726 Ry
     Harris-Foulkes estimate   =   -1940.22701764 Ry
     estimated scf accuracy    <       0.00000007 Ry

     total magnetization       =     1.00 Bohr mag/cell
     absolute magnetization    =     1.21 Bohr mag/cell

     iteration #  4     ecut=    40.00 Ry     beta= 0.70
     CG style diagonalization
     ethr =  1.89E-11,  avg # of iterations =  3.1

     negative rho (up, down):  4.822E-01 8.575E-03

     total cpu time spent up to now is     1348.4 secs

     total energy              =   -1940.22701682 Ry
     Harris-Foulkes estimate   =   -1940.22701727 Ry
     estimated scf accuracy    <          3.9E-09 Ry

     total magnetization       =     1.00 Bohr mag/cell
     absolute magnetization    =     1.21 Bohr mag/cell

     iteration #  5     ecut=    40.00 Ry     beta= 0.70
     CG style diagonalization
     ethr =  9.93E-13,  avg # of iterations =  3.9

     negative rho (up, down):  4.822E-01 8.647E-03

     total cpu time spent up to now is     1386.1 secs

     total energy              =   -1940.22701662 Ry
     Harris-Foulkes estimate   =   -1940.22701682 Ry
     estimated scf accuracy    <          3.5E-09 Ry

     total magnetization       =     1.00 Bohr mag/cell
     absolute magnetization    =     1.21 Bohr mag/cell

     iteration #  6     ecut=    40.00 Ry     beta= 0.70
     CG style diagonalization
     ethr =  8.84E-13,  avg # of iterations =  3.2

     negative rho (up, down):  4.822E-01 8.670E-03

     total cpu time spent up to now is     1416.5 secs

     total energy              =   -1940.22701658 Ry
     Harris-Foulkes estimate   =   -1940.22701662 Ry
     estimated scf accuracy    <          3.3E-10 Ry

     total magnetization       =     1.00 Bohr mag/cell
     absolute magnetization    =     1.21 Bohr mag/cell

     iteration #  7     ecut=    40.00 Ry     beta= 0.70
     CG style diagonalization
     ethr =  1.00E-13,  avg # of iterations =  3.7

     negative rho (up, down):  4.822E-01 8.701E-03
 
     Magnetic moment per site:
     atom:    1    charge:    0.8306    magn:    0.0001    constr:    0.0000
     atom:    2    charge:    0.8260    magn:    0.0013    constr:    0.0000
     atom:    3    charge:    0.8268    magn:    0.0008    constr:    0.0000
     atom:    4    charge:    0.8297    magn:    0.0000    constr:    0.0000
     atom:    5    charge:    0.8321    magn:    0.0008    constr:    0.0000
     atom:    6    charge:    0.8302    magn:   -0.0001    constr:    0.0000
     atom:    7    charge:    0.8311    magn:    0.0008    constr:    0.0000
     atom:    8    charge:    0.8286    magn:    0.0007    constr:    0.0000
     atom:    9    charge:    0.8313    magn:    0.0009    constr:    0.0000
     atom:   10    charge:    0.8215    magn:    0.0064    constr:    0.0000
     atom:   11    charge:    0.8258    magn:    0.0004    constr:    0.0000
     atom:   12    charge:    0.8343    magn:    0.0009    constr:    0.0000
     atom:   13    charge:    0.8325    magn:   -0.0001    constr:    0.0000
     atom:   14    charge:    0.8302    magn:   -0.0001    constr:    0.0000
     atom:   15    charge:    0.8296    magn:    0.0006    constr:    0.0000
     atom:   16    charge:    0.8326    magn:    0.0046    constr:    0.0000
     atom:   17    charge:    0.8408    magn:    0.0153    constr:    0.0000
     atom:   18    charge:    0.8289    magn:    0.0132    constr:    0.0000
     atom:   19    charge:    0.8441    magn:    0.0072    constr:    0.0000
     atom:   20    charge:    0.8343    magn:    0.0009    constr:    0.0000
     atom:   21    charge:    0.8321    magn:    0.0008    constr:    0.0000
     atom:   22    charge:    0.8278    magn:    0.0001    constr:    0.0000
     atom:   23    charge:    0.8243    magn:    0.0003    constr:    0.0000
     atom:   24    charge:    0.8254    magn:    0.0079    constr:    0.0000
     atom:   25    charge:    1.6766    magn:    0.1736    constr:    0.0000
     atom:   26    charge:    0.8289    magn:    0.0132    constr:    0.0000
     atom:   27    charge:    0.8258    magn:    0.0004    constr:    0.0000
     atom:   28    charge:    0.8297    magn:    0.0000    constr:    0.0000
     atom:   29    charge:    0.8273    magn:    0.0006    constr:    0.0000
     atom:   30    charge:    0.8286    magn:    0.0004    constr:    0.0000
     atom:   31    charge:    0.8292    magn:    0.0026    constr:    0.0000
     atom:   32    charge:    0.8254    magn:    0.0079    constr:    0.0000
     atom:   33    charge:    0.8408    magn:    0.0154    constr:    0.0000
     atom:   34    charge:    0.8215    magn:    0.0064    constr:    0.0000
     atom:   35    charge:    0.8268    magn:    0.0008    constr:    0.0000
     atom:   36    charge:    0.8252    magn:   -0.0000    constr:    0.0000
     atom:   37    charge:    0.8258    magn:    0.0000    constr:    0.0000
     atom:   38    charge:    0.8286    magn:    0.0004    constr:    0.0000
     atom:   39    charge:    0.8243    magn:    0.0003    constr:    0.0000
     atom:   40    charge:    0.8326    magn:    0.0046    constr:    0.0000
     atom:   41    charge:    0.8313    magn:    0.0009    constr:    0.0000
     atom:   42    charge:    0.8260    magn:    0.0013    constr:    0.0000
     atom:   43    charge:    0.8251    magn:    0.0011    constr:    0.0000
     atom:   44    charge:    0.8252    magn:   -0.0000    constr:    0.0000
     atom:   45    charge:    0.8273    magn:    0.0006    constr:    0.0000
     atom:   46    charge:    0.8278    magn:    0.0001    constr:    0.0000
     atom:   47    charge:    0.8296    magn:    0.0006    constr:    0.0000
     atom:   48    charge:    0.8286    magn:    0.0007    constr:    0.0000
     atom:   49    charge:    0.8306    magn:    0.0001    constr:    0.0000
     atom:   50    charge:    2.7505    magn:   -0.0004    constr:    0.0000
     atom:   51    charge:    2.7484    magn:   -0.0005    constr:    0.0000
     atom:   52    charge:    2.7406    magn:   -0.0019    constr:    0.0000
     atom:   53    charge:    2.7498    magn:   -0.0003    constr:    0.0000
     atom:   54    charge:    2.7500    magn:   -0.0004    constr:    0.0000
     atom:   55    charge:    2.7466    magn:    0.0004    constr:    0.0000
     atom:   56    charge:    2.7460    magn:    0.0002    constr:    0.0000
     atom:   57    charge:    2.7465    magn:    0.0017    constr:    0.0000
     atom:   58    charge:    2.7462    magn:    0.0006    constr:    0.0000
     atom:   59    charge:    2.7424    magn:   -0.0033    constr:    0.0000
     atom:   60    charge:    2.7346    magn:   -0.0044    constr:    0.0000
     atom:   61    charge:    2.7505    magn:    0.0010    constr:    0.0000
     atom:   62    charge:    2.7464    magn:    0.0020    constr:    0.0000
     atom:   63    charge:    2.7466    magn:    0.0004    constr:    0.0000
     atom:   64    charge:    2.7521    magn:   -0.0003    constr:    0.0000
     atom:   65    charge:    2.7516    magn:    0.0012    constr:    0.0000
     atom:   66    charge:    2.7430    magn:    0.0063    constr:    0.0000
     atom:   67    charge:    1.6720    magn:   -0.0031    constr:    0.0000
     atom:   68    charge:    2.7608    magn:    0.0097    constr:    0.0000
     atom:   69    charge:    2.7505    magn:    0.0010    constr:    0.0000
     atom:   70    charge:    2.7500    magn:   -0.0004    constr:    0.0000
     atom:   71    charge:    2.7504    magn:   -0.0001    constr:    0.0000
     atom:   72    charge:    2.7459    magn:   -0.0003    constr:    0.0000
     atom:   73    charge:    2.7426    magn:   -0.0019    constr:    0.0000
     atom:   74    charge:    2.7326    magn:   -0.0022    constr:    0.0000
     atom:   75    charge:    1.6723    magn:   -0.0031    constr:    0.0000
     atom:   76    charge:    2.7346    magn:   -0.0044    constr:    0.0000
     atom:   77    charge:    2.7498    magn:   -0.0003    constr:    0.0000
     atom:   78    charge:    2.7487    magn:   -0.0003    constr:    0.0000
     atom:   79    charge:    2.7472    magn:   -0.0002    constr:    0.0000
     atom:   80    charge:    2.7456    magn:   -0.0003    constr:    0.0000
     atom:   81    charge:    2.7426    magn:   -0.0019    constr:    0.0000
     atom:   82    charge:    2.7430    magn:    0.0063    constr:    0.0000
     atom:   83    charge:    2.7424    magn:   -0.0033    constr:    0.0000
     atom:   84    charge:    2.7406    magn:   -0.0019    constr:    0.0000
     atom:   85    charge:    2.7461    magn:   -0.0005    constr:    0.0000
[...]
     atom:   55    charge:    2.7466    magn:    0.0004    constr:    0.0000
     atom:   56    charge:    2.7460    magn:    0.0002    constr:    0.0000
     atom:   57    charge:    2.7465    magn:    0.0017    constr:    0.0000
     atom:   58    charge:    2.7462    magn:    0.0006    constr:    0.0000
     atom:   59    charge:    2.7424    magn:   -0.0033    constr:    0.0000
     atom:   60    charge:    2.7345    magn:   -0.0044    constr:    0.0000
     atom:   61    charge:    2.7505    magn:    0.0010    constr:    0.0000
     atom:   62    charge:    2.7464    magn:    0.0020    constr:    0.0000
     atom:   63    charge:    2.7466    magn:    0.0004    constr:    0.0000
     atom:   64    charge:    2.7521    magn:   -0.0003    constr:    0.0000
     atom:   65    charge:    2.7516    magn:    0.0012    constr:    0.0000
     atom:   66    charge:    2.7430    magn:    0.0063    constr:    0.0000
     atom:   67    charge:    1.6720    magn:   -0.0031    constr:    0.0000
     atom:   68    charge:    2.7608    magn:    0.0097    constr:    0.0000
     atom:   69    charge:    2.7505    magn:    0.0010    constr:    0.0000
     atom:   70    charge:    2.7500    magn:   -0.0004    constr:    0.0000
     atom:   71    charge:    2.7504    magn:   -0.0001    constr:    0.0000
     atom:   72    charge:    2.7458    magn:   -0.0003    constr:    0.0000
     atom:   73    charge:    2.7426    magn:   -0.0019    constr:    0.0000
     atom:   74    charge:    2.7326    magn:   -0.0021    constr:    0.0000
     atom:   75    charge:    1.6723    magn:   -0.0031    constr:    0.0000
     atom:   76    charge:    2.7345    magn:   -0.0044    constr:    0.0000
     atom:   77    charge:    2.7498    magn:   -0.0003    constr:    0.0000
     atom:   78    charge:    2.7487    magn:   -0.0003    constr:    0.0000
     atom:   79    charge:    2.7472    magn:   -0.0002    constr:    0.0000
     atom:   80    charge:    2.7456    magn:   -0.0003    constr:    0.0000
     atom:   81    charge:    2.7426    magn:   -0.0019    constr:    0.0000
     atom:   82    charge:    2.7430    magn:    0.0063    constr:    0.0000
     atom:   83    charge:    2.7424    magn:   -0.0033    constr:    0.0000
     atom:   84    charge:    2.7406    magn:   -0.0019    constr:    0.0000
     atom:   85    charge:    2.7461    magn:   -0.0005    constr:    0.0000
     atom:   86    charge:    2.7469    magn:    0.0001    constr:    0.0000
     atom:   87    charge:    2.7472    magn:   -0.0002    constr:    0.0000
     atom:   88    charge:    2.7458    magn:   -0.0003    constr:    0.0000
     atom:   89    charge:    2.7516    magn:    0.0012    constr:    0.0000
     atom:   90    charge:    2.7462    magn:    0.0006    constr:    0.0000
     atom:   91    charge:    2.7484    magn:   -0.0005    constr:    0.0000
     atom:   92    charge:    2.7518    magn:   -0.0002    constr:    0.0000
     atom:   93    charge:    2.7461    magn:   -0.0005    constr:    0.0000
     atom:   94    charge:    2.7487    magn:   -0.0003    constr:    0.0000
     atom:   95    charge:    2.7504    magn:   -0.0001    constr:    0.0000
     atom:   96    charge:    2.7521    magn:   -0.0003    constr:    0.0000
     atom:   97    charge:    2.7465    magn:    0.0017    constr:    0.0000
     atom:   98    charge:    2.7505    magn:   -0.0004    constr:    0.0000

     total cpu time spent up to now is     4562.1 secs

     End of self-consistent calculation

 ------ SPIN UP ------------


          k = 0.0000 0.0000 0.0000 ( 77440 PWs)   bands (ev):

   -21.7343 -21.4757 -21.3702 -21.3675 -21.3500 -21.3195 -21.2308 -20.7962
   -20.6346 -20.6304 -20.6116 -20.5371 -20.5187 -20.3919 -20.2770 -20.2744
   -20.2543 -20.1342 -20.0879 -19.5386 -19.3825 -19.3768 -19.3754 -19.3644
   -19.3624 -19.3551 -19.3546 -19.3378 -19.3048 -19.1490 -19.1454 -19.0130
   -18.9629 -18.9549 -18.9320 -18.7646 -18.7493 -18.5252 -18.5228 -18.5154
   -18.5005 -18.4376 -18.4337 -18.3773 -18.3608 -18.3255 -18.3199 -17.0160
   -15.0903 -13.0983 -12.7506 -12.7491 -12.7387 -12.7059 -12.6949 -12.6443
   -12.5430 -12.5143 -12.5139 -12.4742 -12.4134 -12.1299 -12.0565 -12.0411
   -12.0236 -11.9656 -11.9517 -11.5209 -11.4020 -11.3928 -11.3720 -11.3672
   -11.3631 -11.3561 -11.3546 -11.3100 -11.2877 -11.1011 -11.0649 -10.8553
   -10.7063 -10.6959 -10.6734 -10.6617 -10.5195 -10.0512 -10.0329  -9.9868
    -9.9210  -9.8658  -9.8210  -9.3676  -9.3251  -9.3050  -9.2807  -9.2652
    -9.2611  -9.2228  -9.0226  -8.9158  -8.9145  -8.8857  -8.8842  -8.8804
    -8.8711  -8.8505  -8.8395  -8.8388  -8.8255  -8.8135  -8.8069  -8.8039
    -8.8031  -8.8016  -8.7864  -8.7747  -8.7257  -8.7028  -8.6715  -8.6550
    -8.4696  -8.4652  -8.1849  -8.1847  -8.1640  -8.1303  -8.0781  -7.8929
    -7.8884  -7.8098  -7.8054  -7.7907  -7.7254  -7.7163  -7.5341  -7.4888
    -7.4853  -7.4436  -7.4263  -7.4248  -7.4159  -7.4028  -7.3833  -7.3395
    -7.3284  -7.3242  -7.3076  -7.3021  -7.2322  -7.2224  -7.2045  -7.0520
    -7.0135  -6.9984  -6.9541  -6.8215  -6.6684  -6.5663  -6.2118  -6.1713
    -6.1629  -6.1358  -6.1255  -6.0523  -6.0482  -6.0467  -6.0351  -6.0341
    -6.0303  -6.0255  -6.0192  -5.9909  -5.8691  -5.8469  -5.8079  -5.7265
    -5.5089  -5.4397  -5.4347  -5.4186  -5.3475  -5.2505  -5.2033  -5.1640
    -4.7725  -4.7668  -4.7491  -4.7482  -4.6814  -4.6400  -4.5433  -4.5165
    -4.4797  -4.4739  -4.3268  -3.5478  -0.0958   0.1802   0.7045   0.7081
     0.7208   0.7213   0.7314   0.7432   0.7981   0.8000   0.8174   0.8190
     0.8191   0.8323   0.8411   0.8615   0.8698   0.8791   0.9068   0.9364
     0.9367   1.1273   1.2139   1.2216   1.2398   1.2661   1.2946   1.3284
     1.3288   1.3311   1.3415   1.3445   1.3752   1.4404   1.4409   1.4422
     1.4507   1.4539   1.4730   1.8828   2.0976   2.1019   2.1040   2.1092
     2.1155   2.1164   2.1319   2.2073   2.3379

 ------ SPIN DOWN ----------


          k = 0.0000 0.0000 0.0000 ( 77440 PWs)   bands (ev):

   -21.7254 -21.4387 -21.3684 -21.3663 -21.3480 -21.3149 -21.2093 -20.7689
   -20.6334 -20.6269 -20.6071 -20.5344 -20.5123 -20.3839 -20.2736 -20.2712
   -20.2500 -20.1296 -20.0704 -19.5225 -19.3814 -19.3748 -19.3746 -19.3630
   -19.3605 -19.3548 -19.3530 -19.3336 -19.2984 -19.1466 -19.1398 -19.0090
   -18.9624 -18.9530 -18.9284 -18.7621 -18.7409 -18.5246 -18.5198 -18.5142
   -18.4980 -18.4361 -18.4329 -18.3758 -18.3608 -18.3241 -18.3177 -16.8931
   -15.0338 -13.0092 -12.7452 -12.7451 -12.7335 -12.7021 -12.6915 -12.6367
   -12.5393 -12.5084 -12.5080 -12.4627 -12.3988 -12.1181 -12.0516 -12.0353
   -12.0206 -11.9587 -11.9421 -11.4976 -11.3869 -11.3847 -11.3692 -11.3649
   -11.3603 -11.3525 -11.3520 -11.3002 -11.2762 -11.0923 -11.0457 -10.8369
   -10.7019 -10.6924 -10.6635 -10.6563 -10.5038 -10.0422 -10.0244  -9.9801
    -9.9110  -9.8584  -9.8105  -9.3589  -9.3134  -9.2844  -9.2761  -9.2605
    -9.2579  -9.2203  -9.0097  -8.9091  -8.9026  -8.8847  -8.8819  -8.8762
    -8.8686  -8.8460  -8.8357  -8.8230  -8.8106  -8.8052  -8.7994  -8.7991
    -8.7983  -8.7947  -8.7708  -8.7549  -8.7182  -8.6592  -8.6427  -8.6174
    -8.4614  -8.4542  -8.1845  -8.1829  -8.1630  -8.1183  -8.0698  -7.8874
    -7.8141  -7.8014  -7.7953  -7.7737  -7.7087  -7.6781  -7.5245  -7.4840
    -7.4815  -7.4406  -7.4247  -7.4234  -7.3997  -7.3814  -7.3637  -7.3375
    -7.3153  -7.3124  -7.3003  -7.2909  -7.1982  -7.1931  -7.1676  -7.0409
    -7.0109  -6.9967  -6.9413  -6.8075  -6.6629  -6.5589  -6.1678  -6.1619
    -6.1343  -6.1160  -6.1134  -6.0469  -6.0424  -6.0403  -6.0282  -6.0253
    -6.0198  -6.0198  -6.0046  -5.9651  -5.8416  -5.8213  -5.7871  -5.7186
    -5.4760  -5.4339  -5.4231  -5.4068  -5.3107  -5.2317  -5.1918  -5.1416
    -4.7621  -4.7529  -4.7421  -4.7413  -4.6677  -4.6347  -4.5281  -4.5109
    -4.4751  -4.4683  -4.2456  -3.4438   0.1888   0.4399   0.7125   0.7338
     0.7412   0.7471   0.7611   0.7784   0.7966   0.8186   0.8200   0.8218
     0.8254   0.8424   0.8490   0.8822   0.8958   0.9206   0.9495   0.9515
     1.0125   1.1765   1.2522   1.2642   1.2864   1.3016   1.3150   1.3282
     1.3288   1.3318   1.3498   1.3501   1.4021   1.4390   1.4393   1.4409
     1.4505   1.4532   1.4796   1.8877   2.1059   2.1066   2.1159   2.1290
     2.1353   2.1499   2.1948   2.2106   2.3554

     highest occupied, lowest unoccupied level (ev):    -4.2456   -3.5478

!    total energy              =   -1940.22701666 Ry
     Harris-Foulkes estimate   =   -1940.22701667 Ry
     estimated scf accuracy    <          3.8E-13 Ry

     total all-electron energy =     -7770.051493 Ry

     The total energy is the sum of the following terms:

     one-electron contribution =  -10647.10520608 Ry
     hartree contribution      =    5409.27741492 Ry
     xc contribution           =    -430.70646095 Ry
     ewald contribution        =    4371.75361719 Ry
     DFT-D3 Dispersion         =      -0.27018276 Ry
     one-center paw contrib.   =    -643.17619898 Ry

     total magnetization       =     1.00 Bohr mag/cell
     absolute magnetization    =     1.21 Bohr mag/cell

     convergence has been achieved in  27 iterations

     negative rho (up, down):  4.822E-01 8.720E-03

     Forces acting on atoms (cartesian axes, Ry/au):

     atom    1 type  1   force =    -0.00000199    0.00000202    0.00000000
     atom    2 type  1   force =     0.00000563    0.00000490    0.00000000
     atom    3 type  1   force =     0.00000571    0.00000595    0.00000000
     atom    4 type  1   force =    -0.00000094   -0.00000246    0.00000000
     atom    5 type  1   force =    -0.00000559   -0.00000179    0.00000000
     atom    6 type  1   force =    -0.00001361    0.00000523    0.00000000
     atom    7 type  1   force =    -0.00001456    0.00000792    0.00000000
     atom    8 type  1   force =    -0.00000944    0.00000447    0.00000000
     atom    9 type  1   force =     0.00000260    0.00000743    0.00000000
     atom   10 type  1   force =     0.00001128    0.00001005    0.00000000
     atom   11 type  1   force =     0.00000482    0.00000945    0.00000000
     atom   12 type  1   force =    -0.00000381    0.00000203    0.00000000
     atom   13 type  1   force =    -0.00000427    0.00000340    0.00000000
     atom   14 type  1   force =    -0.00001078    0.00000946    0.00000000
     atom   15 type  1   force =    -0.00000305    0.00000613    0.00000000
     atom   16 type  1   force =     0.00000050    0.00000098    0.00000000
     atom   17 type  1   force =     0.00001247    0.00000141    0.00000000
     atom   18 type  1   force =     0.00000992    0.00000827    0.00000000
     atom   19 type  1   force =    -0.00000170    0.00000314    0.00000000
     atom   20 type  1   force =    -0.00000023    0.00000242    0.00000000
     atom   21 type  1   force =     0.00000006    0.00000649    0.00000000
     atom   22 type  1   force =     0.00000171    0.00000321    0.00000000
     atom   23 type  1   force =     0.00000282   -0.00000119    0.00000000
     atom   24 type  1   force =     0.00000836   -0.00000250    0.00000000
     atom   25 type  4   force =    -0.00000317   -0.00002932    0.00000000
     atom   26 type  1   force =     0.00000918   -0.00001528    0.00000000
     atom   27 type  1   force =    -0.00000179   -0.00000971    0.00000000
     atom   28 type  1   force =     0.00000370    0.00000107    0.00000000
     atom   29 type  1   force =    -0.00000309   -0.00000149    0.00000000
     atom   30 type  1   force =    -0.00000106   -0.00000105    0.00000000
     atom   31 type  1   force =     0.00000415   -0.00000360    0.00000000
     atom   32 type  1   force =     0.00000730   -0.00000479    0.00000000
     atom   33 type  1   force =    -0.00000514   -0.00001629    0.00000000
     atom   34 type  1   force =    -0.00000256   -0.00001872    0.00000000
     atom   35 type  1   force =    -0.00000106   -0.00001039    0.00000000
     atom   36 type  1   force =    -0.00000192   -0.00000458    0.00000000
     atom   37 type  1   force =    -0.00000217    0.00000009    0.00000000
     atom   38 type  1   force =    -0.00000062   -0.00000008    0.00000000
     atom   39 type  1   force =     0.00000210   -0.00000012    0.00000000
     atom   40 type  1   force =    -0.00000522   -0.00000233    0.00000000
     atom   41 type  1   force =    -0.00000772   -0.00000931    0.00000000
     atom   42 type  1   force =    -0.00000272   -0.00001035    0.00000000
     atom   43 type  1   force =     0.00000405   -0.00000353    0.00000000
     atom   44 type  1   force =     0.00000194    0.00000256    0.00000000
     atom   45 type  1   force =    -0.00000120    0.00000266    0.00000000
     atom   46 type  1   force =    -0.00000269   -0.00000280    0.00000000
     atom   47 type  1   force =    -0.00000778   -0.00000013    0.00000000
     atom   48 type  1   force =    -0.00001172    0.00000425    0.00000000
     atom   49 type  1   force =    -0.00000509   -0.00000154    0.00000000
     atom   50 type  2   force =     0.00000010    0.00000450    0.00000000
     atom   51 type  2   force =     0.00000146    0.00001610    0.00000000
     atom   52 type  2   force =     0.00001441    0.00000578    0.00000000
     atom   53 type  2   force =     0.00000966   -0.00000482    0.00000000
     atom   54 type  2   force =    -0.00001070    0.00000461    0.00000000
     atom   55 type  2   force =    -0.00001271    0.00001021    0.00000000
     atom   56 type  2   force =    -0.00000124    0.00000128    0.00000000
     atom   57 type  2   force =    -0.00000280    0.00000166    0.00000000
     atom   58 type  2   force =    -0.00000132    0.00000863    0.00000000
     atom   59 type  2   force =     0.00000916    0.00001352    0.00000000
     atom   60 type  2   force =     0.00001828    0.00000277    0.00000000
     atom   61 type  2   force =     0.00000440   -0.00000245    0.00000000
     atom   62 type  2   force =    -0.00001601    0.00000909    0.00000000
     atom   63 type  2   force =    -0.00001501    0.00000644    0.00000000
     atom   64 type  2   force =    -0.00000919    0.00000150    0.00000000
     atom   65 type  2   force =    -0.00000347    0.00000188    0.00000000
     atom   66 type  2   force =    -0.00000165    0.00000854    0.00000000
     atom   67 type  3   force =     0.00002174    0.00001209    0.00000000
     atom   68 type  2   force =     0.00001335   -0.00001422    0.00000000
     atom   69 type  2   force =     0.00000081   -0.00000247    0.00000000
     atom   70 type  2   force =    -0.00001026    0.00000818    0.00000000
     atom   71 type  2   force =    -0.00000039    0.00000406    0.00000000
     atom   72 type  2   force =     0.00000541    0.00000085    0.00000000
     atom   73 type  2   force =     0.00000450   -0.00000244    0.00000000
     atom   74 type  2   force =     0.00000028    0.00000139    0.00000000
     atom   75 type  5   force =     0.00000319    0.00000990    0.00000000
     atom   76 type  2   force =     0.00000657   -0.00001449    0.00000000
     atom   77 type  2   force =     0.00000788   -0.00000374    0.00000000
     atom   78 type  2   force =     0.00000743   -0.00000032    0.00000000
     atom   79 type  2   force =     0.00000917   -0.00000085    0.00000000
     atom   80 type  2   force =     0.00000743   -0.00000443    0.00000000
     atom   81 type  2   force =     0.00000320   -0.00000266    0.00000000
     atom   82 type  2   force =    -0.00000050   -0.00000542    0.00000000
     atom   83 type  2   force =    -0.00000626   -0.00001168    0.00000000
     atom   84 type  2   force =     0.00000238   -0.00001136    0.00000000
     atom   85 type  2   force =    -0.00000287   -0.00000114    0.00000000
     atom   86 type  2   force =     0.00000416   -0.00000217    0.00000000
     atom   87 type  2   force =     0.00000495   -0.00000703    0.00000000
     atom   88 type  2   force =     0.00000212   -0.00000566    0.00000000
     atom   89 type  2   force =    -0.00000099    0.00000010    0.00000000
     atom   90 type  2   force =    -0.00000402   -0.00000098    0.00000000
     atom   91 type  2   force =    -0.00001140   -0.00000619    0.00000000
     atom   92 type  2   force =    -0.00000638    0.00000454    0.00000000
     atom   93 type  2   force =     0.00000069    0.00000416    0.00000000
     atom   94 type  2   force =     0.00000491   -0.00000531    0.00000000
     atom   95 type  2   force =    -0.00000326   -0.00000179    0.00000000
     atom   96 type  2   force =    -0.00000563    0.00000677    0.00000000
     atom   97 type  2   force =    -0.00000092    0.00000225    0.00000000
     atom   98 type  2   force =    -0.00000233   -0.00000085    0.00000000

     Total force =     0.000101     Total SCF correction =     0.000001


     Computing stress (Cartesian axis) and pressure


     negative rho (up, down):  4.822E-01 8.720E-03
          total   stress  (Ry/bohr**3)                   (kbar)     P=   -0.16
  -0.00000000  -0.00000000   0.00000000         -0.00     -0.00      0.00
  -0.00000000  -0.00000000   0.00000000         -0.00     -0.00      0.00
   0.00000000   0.00000000  -0.00000334          0.00      0.00     -0.49


     Writing output data file C2Cn.save/
 
     init_run     :     10.78s CPU     11.18s WALL (       2 calls)
     electrons    :   4381.79s CPU   4414.24s WALL (       7 calls)
     update_pot   :     18.25s CPU     18.33s WALL (       5 calls)
     forces       :     29.71s CPU     30.45s WALL (       7 calls)
     stress       :     94.01s CPU     94.47s WALL (       7 calls)

     Called by init_run:
     wfcinit      :      4.54s CPU      4.71s WALL (       2 calls)
     potinit      :      2.21s CPU      2.24s WALL (       2 calls)
     hinit0       :      3.07s CPU      3.14s WALL (       2 calls)

     Called by electrons:
     c_bands      :   4241.20s CPU   4266.96s WALL (     104 calls)
     sum_band     :     78.64s CPU     80.73s WALL (     104 calls)
     v_of_rho     :     22.25s CPU     22.87s WALL (     106 calls)
     newd         :      8.31s CPU      9.34s WALL (     106 calls)
     PAW_pot      :     23.67s CPU     23.87s WALL (     111 calls)
     mix_rho      :      1.96s CPU      2.20s WALL (     104 calls)

     Called by c_bands:
     init_us_2    :      4.23s CPU      4.35s WALL (     458 calls)
     rcgdiagg     :   4103.38s CPU   4126.63s WALL (     223 calls)
     wfcrot       :    138.48s CPU    140.60s WALL (     203 calls)

     Called by sum_band:
     sum_band:bec :      0.15s CPU      0.15s WALL (     218 calls)
     addusdens    :      8.31s CPU      9.64s WALL (     104 calls)

     Called by *cgdiagg:
     h_psi        :   2159.25s CPU   2172.43s WALL (  164020 calls)
     s_psi        :   1201.38s CPU   1208.09s WALL (  327837 calls)
     rdiaghg      :      3.41s CPU      3.51s WALL (     203 calls)

     Called by h_psi:
     h_psi:pot    :   2156.84s CPU   2170.01s WALL (  164020 calls)
     h_psi:calbec :    724.31s CPU    727.86s WALL (  164020 calls)
     vloc_psi     :    820.57s CPU    827.64s WALL (  164020 calls)
     add_vuspsi   :    609.80s CPU    613.05s WALL (  164020 calls)
     hs_1psi      :   2640.09s CPU   2654.78s WALL (  163817 calls)
     s_1psi       :   1225.55s CPU   1231.68s WALL (  163817 calls)

     General routines
     calbec       :   1358.09s CPU   1366.28s WALL (  328125 calls)
     fft          :     18.26s CPU     18.47s WALL (    2034 calls)
     ffts         :      0.76s CPU      0.78s WALL (     208 calls)
     fftw         :    800.38s CPU    807.13s WALL (  403740 calls)
 
     Parallel routines
     fft_scatt_xy :    117.97s CPU    118.69s WALL (  405982 calls)
     fft_scatt_yz :    219.39s CPU    222.15s WALL (  405982 calls)
 
     PWSCF        :      1h15m CPU      1h16m WALL

 
   This run was terminated on:   2:15:41  10Jun2021            

=------------------------------------------------------------------------------=
   JOB DONE.
=------------------------------------------------------------------------------=
