
     Program PWSCF v.6.4.1 starts on  9Jun2021 at 10:31: 2 

     This program is part of the open-source Quantum ESPRESSO suite
     for quantum simulation of materials; please cite
         "P. Giannozzi et al., J. Phys.:Condens. Matter 21 395502 (2009);
         "P. Giannozzi et al., J. Phys.:Condens. Matter 29 465901 (2017);
          URL http://www.quantum-espresso.org", 
     in publications or presentations arising from this work. More details at
     http://www.quantum-espresso.org/quote

     Parallel version (MPI), running on    64 processors

     MPI processes distributed on     2 nodes
     R & G space division:  proc/nbgrp/npool/nimage =      64
     Waiting for input...
     Reading input from standard input

     Current dimensions of program PWSCF are:
     Max number of different atomic species (ntypx) = 10
     Max number of k-points (npk) =  40000
     Max angular momentum in pseudopotentials (lmaxx) =  3
               file N.pbe-n-kjpaw_psl.1.0.0.UPF: wavefunction(s)  2S renormalized
               file C.pbe-n-kjpaw_psl.1.0.0.UPF: wavefunction(s)  2S 2P renormalized
               file C.pbe-n-kjpaw_psl.1.0.0.UPF: wavefunction(s)  2S 2P renormalized
               file C.pbe-n-kjpaw_psl.1.0.0.UPF: wavefunction(s)  2S 2P renormalized

     --------------------------------------------
     Parameters for DFT-D3 Dispersion Correction:
     --------------------------------------------
       Reference C6 values for interpolation: 

         atom   Coordination number   C6
         B          0.000           214.36
         B          0.971           150.74
         B          1.944           106.23
         B          2.913            62.89
         B          4.586            56.06
         C1         0.000            98.23
         C1         0.987            86.49
         C1         1.998            58.72
         C1         2.999            51.56
         C1         3.984            36.41
         C2         0.000            98.23
         C2         0.987            86.49
         C2         1.998            58.72
         C2         2.999            51.56
         C2         3.984            36.41
         C3         0.000            98.23
         C3         0.987            86.49
         C3         1.998            58.72
         C3         2.999            51.56
         C3         3.984            36.41
         N          0.000            50.54
         N          0.994            44.25
         N          2.014            39.35
         N          2.990            31.16

       Values used:

         atom   Coordination number  R0_AB[au]  C6      C8
         B          3.325            3.039     62.90   2506.26
         B          3.316            3.039     62.90   2506.45
         B          3.315            3.039     62.90   2506.48
         B          3.325            3.039     62.90   2506.26
         B          3.326            3.039     62.90   2506.23
         B          3.323            3.039     62.90   2506.30
         B          3.325            3.039     62.90   2506.25
         B          3.323            3.039     62.90   2506.31
         B          3.323            3.039     62.90   2506.29
         B          3.300            3.039     62.91   2506.81
         B          3.321            3.039     62.90   2506.35
         B          3.328            3.039     62.90   2506.18
         B          3.324            3.039     62.90   2506.27
         B          3.323            3.039     62.90   2506.30
         B          3.324            3.039     62.90   2506.29
         B          3.321            3.039     62.90   2506.34
         B          3.289            3.039     62.92   2507.08
         B          3.287            3.039     62.92   2507.11
         B          3.336            3.039     62.89   2505.98
         B          3.328            3.039     62.90   2506.19
         B          3.326            3.039     62.90   2506.23
         B          3.322            3.039     62.90   2506.32
         B          3.317            3.039     62.90   2506.43
         B          3.315            3.039     62.90   2506.50
         C2         3.241            2.750     49.54   1432.68
         B          3.287            3.039     62.92   2507.11
         B          3.321            3.039     62.90   2506.35
         B          3.325            3.039     62.90   2506.26
         B          3.320            3.039     62.90   2506.37
         B          3.320            3.039     62.90   2506.38
         B          3.318            3.039     62.90   2506.42
         B          3.315            3.039     62.90   2506.49
         B          3.289            3.039     62.92   2507.08
         B          3.300            3.039     62.91   2506.82
         B          3.315            3.039     62.90   2506.48
         B          3.315            3.039     62.90   2506.48
         B          3.318            3.039     62.90   2506.43
         B          3.320            3.039     62.90   2506.38
         B          3.317            3.039     62.90   2506.43
         B          3.322            3.039     62.90   2506.34
         B          3.323            3.039     62.90   2506.29
         B          3.316            3.039     62.90   2506.45
         B          3.318            3.039     62.90   2506.41
         B          3.315            3.039     62.90   2506.48
         B          3.320            3.039     62.90   2506.37
         B          3.322            3.039     62.90   2506.32
         B          3.324            3.039     62.90   2506.29
         B          3.322            3.039     62.90   2506.31
         B          3.325            3.039     62.90   2506.26
         N          3.129            2.478     31.22    688.75
         N          3.128            2.478     31.22    688.75
         N          3.124            2.478     31.22    688.79
         N          3.127            2.478     31.22    688.76
         N          3.130            2.478     31.22    688.73
         N          3.129            2.478     31.22    688.75
         N          3.128            2.478     31.22    688.75
         N          3.128            2.478     31.22    688.75
         N          3.128            2.478     31.22    688.75
         N          3.124            2.478     31.22    688.80
         N          3.121            2.478     31.22    688.82
         N          3.132            2.478     31.22    688.72
         N          3.129            2.478     31.22    688.74
         N          3.129            2.478     31.22    688.75
         N          3.129            2.478     31.22    688.74
         N          3.128            2.478     31.22    688.75
         N          3.129            2.478     31.22    688.74
         C1         3.181            2.750     50.26   1453.53
         N          3.132            2.478     31.22    688.72
         N          3.132            2.478     31.22    688.72
         N          3.130            2.478     31.22    688.73
         N          3.129            2.478     31.22    688.75
         N          3.127            2.478     31.22    688.76
         N          3.126            2.478     31.22    688.77
         N          3.149            2.478     31.21    688.57
         C3         3.181            2.750     50.26   1453.54
         N          3.121            2.478     31.22    688.82
         N          3.127            2.478     31.22    688.76
         N          3.126            2.478     31.22    688.77
         N          3.127            2.478     31.22    688.76
         N          3.127            2.478     31.22    688.77
         N          3.126            2.478     31.22    688.77
         N          3.129            2.478     31.22    688.74
         N          3.124            2.478     31.22    688.80
         N          3.124            2.478     31.22    688.79
         N          3.126            2.478     31.22    688.77
         N          3.126            2.478     31.22    688.78
         N          3.127            2.478     31.22    688.76
         N          3.127            2.478     31.22    688.76
         N          3.128            2.478     31.22    688.75
         N          3.128            2.478     31.22    688.75
         N          3.128            2.478     31.22    688.75
         N          3.129            2.478     31.22    688.75
         N          3.126            2.478     31.22    688.78
         N          3.126            2.478     31.22    688.77
         N          3.129            2.478     31.22    688.75
         N          3.129            2.478     31.22    688.74
         N          3.128            2.478     31.22    688.75
         N          3.129            2.478     31.22    688.75

         Molecular C6 ( Ry / a.u.^6 ) =    437735.18


     gamma-point specific algorithms are used

     Subspace diagonalization in iterative solution of the eigenvalue problem:
     one sub-group per band group will be used
     scalapack distributed-memory algorithm (size of sub-group:  5*  5 procs)

     Message from routine setup:
     DEPRECATED: symmetry with ibrav=0, use correct ibrav instead
 
     Parallelization info
     --------------------
     sticks:   dense  smooth     PW     G-vecs:    dense   smooth      PW
     Min         189     189     46                19334    19334    2406
     Max         192     192     48                19346    19346    2428
     Sum       12179   12179   3051              1237887  1237887  154867
 


     bravais-lattice index     =            0
     lattice parameter (alat)  =      33.2346  a.u.
     unit-cell volume          =   36223.5183 (a.u.)^3
     number of atoms/cell      =           98
     number of atomic types    =            5
     number of electrons       =       391.00
     number of Kohn-Sham states=          245
     kinetic-energy cutoff     =      40.0000  Ry
     charge density cutoff     =     160.0000  Ry
     convergence threshold     =      1.0E-08
     mixing beta               =       0.7000
     number of iterations used =            8  plain     mixing
     Exchange-correlation      = SLA PW PBX PBC ( 1  4  3  4 0 0)
     Using LIBXC version       =    4   3   4
     nstep                     =           50


     celldm(1)=  33.234611  celldm(2)=   0.000000  celldm(3)=   0.000000
     celldm(4)=   0.000000  celldm(5)=   0.000000  celldm(6)=   0.000000

     crystal axes: (cart. coord. in units of alat)
               a(1) = (   1.001291  -0.000540   0.000000 )  
               a(2) = (  -0.501113   0.866873   0.000000 )  
               a(3) = (   0.000000   0.000000   1.137204 )  

     reciprocal axes: (cart. coord. in units 2 pi/alat)
               b(1) = (  0.999022  0.577504  0.000000 )  
               b(2) = (  0.000622  1.153931  0.000000 )  
               b(3) = (  0.000000  0.000000  0.879350 )  


     PseudoPot. # 1 for B  read from file:
     ./pseudo/B.pbe-n-kjpaw_psl.1.0.0.UPF
     MD5 check sum: 8c825a5969375aca5c2c6ad5945b3059
     Pseudo is Projector augmented-wave + core cor, Zval =  3.0
     Generated using "atomic" code by A. Dal Corso v.6.3
     Shape of augmentation charge: PSQ
     Using radial grid of 1059 points,  4 beta functions with: 
                l(1) =   0
                l(2) =   0
                l(3) =   1
                l(4) =   1
     Q(r) pseudized with 0 coefficients 


     PseudoPot. # 2 for N  read from file:
     ./pseudo/N.pbe-n-kjpaw_psl.1.0.0.UPF
     MD5 check sum: 14c48229446f9f2d411169a3abcbc3fa
     Pseudo is Projector augmented-wave + core cor, Zval =  5.0
     Generated using "atomic" code by A. Dal Corso v.6.3
     Shape of augmentation charge: PSQ
     Using radial grid of 1085 points,  4 beta functions with: 
                l(1) =   0
                l(2) =   0
                l(3) =   1
                l(4) =   1
     Q(r) pseudized with 0 coefficients 


     PseudoPot. # 3 for C  read from file:
     ./pseudo/C.pbe-n-kjpaw_psl.1.0.0.UPF
     MD5 check sum: 5f16ad9a65e90284d1d834d4ab3b0f7d
     Pseudo is Projector augmented-wave + core cor, Zval =  4.0
     Generated using "atomic" code by A. Dal Corso v.6.3
     Shape of augmentation charge: PSQ
     Using radial grid of 1073 points,  4 beta functions with: 
                l(1) =   0
                l(2) =   0
                l(3) =   1
                l(4) =   1
     Q(r) pseudized with 0 coefficients 


     PseudoPot. # 4 for C  read from file:
     ./pseudo/C.pbe-n-kjpaw_psl.1.0.0.UPF
     MD5 check sum: 5f16ad9a65e90284d1d834d4ab3b0f7d
     Pseudo is Projector augmented-wave + core cor, Zval =  4.0
     Generated using "atomic" code by A. Dal Corso v.6.3
     Shape of augmentation charge: PSQ
     Using radial grid of 1073 points,  4 beta functions with: 
                l(1) =   0
                l(2) =   0
                l(3) =   1
                l(4) =   1
     Q(r) pseudized with 0 coefficients 


     PseudoPot. # 5 for C  read from file:
     ./pseudo/C.pbe-n-kjpaw_psl.1.0.0.UPF
     MD5 check sum: 5f16ad9a65e90284d1d834d4ab3b0f7d
     Pseudo is Projector augmented-wave + core cor, Zval =  4.0
     Generated using "atomic" code by A. Dal Corso v.6.3
     Shape of augmentation charge: PSQ
     Using radial grid of 1073 points,  4 beta functions with: 
                l(1) =   0
                l(2) =   0
                l(3) =   1
                l(4) =   1
     Q(r) pseudized with 0 coefficients 


     atomic species   valence    mass     pseudopotential
        B              3.00    10.00000     B ( 1.00)
        N              5.00    14.00000     N ( 1.00)
        C1             4.00    12.00000     C ( 1.00)
        C2             4.00    12.00000     C ( 1.00)
        C3             4.00    12.00000     C ( 1.00)

     Starting magnetic structure 
     atomic species   magnetization
        B            0.000
        N            0.000
        C1           1.000
        C2           0.000
        C3           0.000

      2 Sym. Ops. (no inversion) found



   Cartesian axes

     site n.     atom                  positions (alat units)
         1           B   tau(   1) = (  -0.0000821   0.0821211   0.5686018  )
         2           B   tau(   2) = (  -0.0716142   0.2061533   0.5686018  )
         3           B   tau(   3) = (  -0.1434328   0.3302735   0.5686018  )
         4           B   tau(   4) = (  -0.2152441   0.4540203   0.5686018  )
         5           B   tau(   5) = (  -0.2865364   0.5778787   0.5686018  )
         6           B   tau(   6) = (  -0.3578137   0.7018098   0.5686018  )
         7           B   tau(   7) = (  -0.4294568   0.8255039   0.5686018  )
         8           B   tau(   8) = (   0.1429582   0.0817581   0.5686018  )
         9           B   tau(   9) = (   0.0710396   0.2051801   0.5686018  )
        10           B   tau(  10) = (  -0.0001446   0.3299433   0.5686018  )
        11           B   tau(  11) = (  -0.0729242   0.4543451   0.5686018  )
        12           B   tau(  12) = (  -0.1444928   0.5780497   0.5686018  )
        13           B   tau(  13) = (  -0.2152085   0.7018061   0.5686018  )
        14           B   tau(  14) = (  -0.2865143   0.8253049   0.5686018  )
        15           B   tau(  15) = (   0.2863897   0.0817879   0.5686018  )
        16           B   tau(  16) = (   0.2149858   0.2046234   0.5686018  )
        17           B   tau(  17) = (   0.1431299   0.3268205   0.5686018  )
        18           B   tau(  18) = (   0.0690332   0.4565488   0.5686018  )
        19           B   tau(  19) = (  -0.0028065   0.5791744   0.5686018  )
        20           B   tau(  20) = (  -0.0726762   0.7024429   0.5686018  )
        21           B   tau(  21) = (  -0.1435496   0.8255422   0.5686018  )
        22           B   tau(  22) = (   0.4292226   0.0822698   0.5686018  )
        23           B   tau(  23) = (   0.3577779   0.2059345   0.5686018  )
        24           B   tau(  24) = (   0.2862344   0.3298606   0.5686018  )
        25           C2  tau(  25) = (   0.2167064   0.4524570   0.5686018  )
        26           B   tau(  26) = (   0.1393043   0.5782748   0.5686018  )
        27           B   tau(  27) = (   0.0702395   0.7023148   0.5686018  )
        28           B   tau(  28) = (  -0.0006396   0.8257314   0.5686018  )
        29           B   tau(  29) = (   0.5720649   0.0822281   0.5686018  )
        30           B   tau(  30) = (   0.5007003   0.2059987   0.5686018  )
        31           B   tau(  31) = (   0.4292512   0.3297280   0.5686018  )
        32           B   tau(  32) = (   0.3576265   0.4535153   0.5686018  )
        33           B   tau(  33) = (   0.2887143   0.5789698   0.5686018  )
        34           B   tau(  34) = (   0.2143663   0.7014871   0.5686018  )
        35           B   tau(  35) = (   0.1424363   0.8254153   0.5686018  )
        36           B   tau(  36) = (   0.7151496   0.0821424   0.5686018  )
        37           B   tau(  37) = (   0.6435526   0.2060017   0.5686018  )
        38           B   tau(  38) = (   0.5721289   0.3297159   0.5686018  )
        39           B   tau(  39) = (   0.5007219   0.4535202   0.5686018  )
        40           B   tau(  40) = (   0.4304633   0.5778372   0.5686018  )
        41           B   tau(  41) = (   0.3580080   0.7022212   0.5686018  )
        42           B   tau(  42) = (   0.2858382   0.8252793   0.5686018  )
        43           B   tau(  43) = (   0.8583371   0.0819973   0.5686018  )
        44           B   tau(  44) = (   0.7866178   0.2059275   0.5686018  )
        45           B   tau(  45) = (   0.7150011   0.3297974   0.5686018  )
        46           B   tau(  46) = (   0.6435426   0.4534801   0.5686018  )
        47           B   tau(  47) = (   0.5725431   0.5774181   0.5686018  )
        48           B   tau(  48) = (   0.5008541   0.7016494   0.5686018  )
        49           B   tau(  49) = (   0.4290200   0.8253467   0.5686018  )
        50           N   tau(  50) = (   0.0714316   0.0409414   0.5686018  )
        51           N   tau(  51) = (  -0.0003878   0.1644570   0.5686018  )
        52           N   tau(  52) = (  -0.0716097   0.2889484   0.5686018  )
        53           N   tau(  53) = (  -0.1438591   0.4127081   0.5686018  )
        54           N   tau(  54) = (  -0.2154980   0.5364938   0.5686018  )
        55           N   tau(  55) = (  -0.2865436   0.6604537   0.5686018  )
        56           N   tau(  56) = (  -0.3579879   0.7842385   0.5686018  )
        57           N   tau(  57) = (   0.2146356   0.0408178   0.5686018  )
        58           N   tau(  58) = (   0.1429059   0.1641671   0.5686018  )
        59           N   tau(  59) = (   0.0709715   0.2874508   0.5686018  )
        60           N   tau(  60) = (  -0.0008484   0.4132299   0.5686018  )
        61           N   tau(  61) = (  -0.0736178   0.5368050   0.5686018  )
        62           N   tau(  62) = (  -0.1439975   0.6606937   0.5686018  )
        63           N   tau(  63) = (  -0.2150630   0.7842594   0.5686018  )
        64           N   tau(  64) = (   0.3578283   0.0409448   0.5686018  )
        65           N   tau(  65) = (   0.2865623   0.1640277   0.5686018  )
        66           N   tau(  66) = (   0.2149902   0.2867208   0.5686018  )
        67           C1  tau(  67) = (   0.1456622   0.4134387   0.5686018  )
        68           N   tau(  68) = (   0.0671695   0.5387801   0.5686018  )
        69           N   tau(  69) = (  -0.0015142   0.6616876   0.5686018  )
        70           N   tau(  70) = (  -0.0721859   0.7847127   0.5686018  )
        71           N   tau(  71) = (   0.5006344   0.0411941   0.5686018  )
        72           N   tau(  72) = (   0.4292251   0.1648009   0.5686018  )
        73           N   tau(  73) = (   0.3577076   0.2886338   0.5686018  )
        74           N   tau(  74) = (   0.2863799   0.4122120   0.5686018  )
        75           C3  tau(  75) = (   0.2149586   0.5334457   0.5686018  )
        76           N   tau(  76) = (   0.1418865   0.6604538   0.5686018  )
        77           N   tau(  77) = (   0.0708351   0.7845649   0.5686018  )
        78           N   tau(  78) = (   0.6436345   0.0409570   0.5686018  )
        79           N   tau(  79) = (   0.5721593   0.1647022   0.5686018  )
        80           N   tau(  80) = (   0.5007225   0.2884631   0.5686018  )
        81           N   tau(  81) = (   0.4290672   0.4122316   0.5686018  )
        82           N   tau(  82) = (   0.3593599   0.5367871   0.5686018  )
        83           N   tau(  83) = (   0.2867231   0.6611441   0.5686018  )
        84           N   tau(  84) = (   0.2141366   0.7838733   0.5686018  )
        85           N   tau(  85) = (   0.7867351   0.0408692   0.5686018  )
        86           N   tau(  86) = (   0.7151083   0.1646866   0.5686018  )
        87           N   tau(  87) = (   0.6436203   0.2884776   0.5686018  )
        88           N   tau(  88) = (   0.5720677   0.4122139   0.5686018  )
        89           N   tau(  89) = (   0.5014051   0.5361513   0.5686018  )
        90           N   tau(  90) = (   0.4294553   0.6604892   0.5686018  )
        91           N   tau(  91) = (   0.3575579   0.7844385   0.5686018  )
        92           N   tau(  92) = (   0.9297786   0.0407455   0.5686018  )
        93           N   tau(  93) = (   0.8581506   0.1645644   0.5686018  )
        94           N   tau(  94) = (   0.7865239   0.2884511   0.5686018  )
        95           N   tau(  95) = (   0.7148183   0.4121755   0.5686018  )
        96           N   tau(  96) = (   0.6436318   0.5359742   0.5686018  )
        97           N   tau(  97) = (   0.5721448   0.6600449   0.5686018  )
        98           N   tau(  98) = (   0.5004353   0.7839987   0.5686018  )

     number of k points=     1
                       cart. coord. in units 2pi/alat
        k(    1) = (   0.0000000   0.0000000   0.0000000), wk =   1.0000000

     Dense  grid:   618944 G-vectors     FFT dimensions: ( 135, 135, 160)

     Occupations read from input 

      Spin-up

        1.0000   1.0000   1.0000   1.0000   1.0000   1.0000   1.0000   1.0000
        1.0000   1.0000   1.0000   1.0000   1.0000   1.0000   1.0000   1.0000
        1.0000   1.0000   1.0000   1.0000   1.0000   1.0000   1.0000   1.0000
        1.0000   1.0000   1.0000   1.0000   1.0000   1.0000   1.0000   1.0000
        1.0000   1.0000   1.0000   1.0000   1.0000   1.0000   1.0000   1.0000
        1.0000   1.0000   1.0000   1.0000   1.0000   1.0000   1.0000   1.0000
        1.0000   1.0000   1.0000   1.0000   1.0000   1.0000   1.0000   1.0000
        1.0000   1.0000   1.0000   1.0000   1.0000   1.0000   1.0000   1.0000
        1.0000   1.0000   1.0000   1.0000   1.0000   1.0000   1.0000   1.0000
        1.0000   1.0000   1.0000   1.0000   1.0000   1.0000   1.0000   1.0000
        1.0000   1.0000   1.0000   1.0000   1.0000   1.0000   1.0000   1.0000
        1.0000   1.0000   1.0000   1.0000   1.0000   1.0000   1.0000   1.0000
        1.0000   1.0000   1.0000   1.0000   1.0000   1.0000   1.0000   1.0000
        1.0000   1.0000   1.0000   1.0000   1.0000   1.0000   1.0000   1.0000
        1.0000   1.0000   1.0000   1.0000   1.0000   1.0000   1.0000   1.0000
        1.0000   1.0000   1.0000   1.0000   1.0000   1.0000   1.0000   1.0000
        1.0000   1.0000   1.0000   1.0000   1.0000   1.0000   1.0000   1.0000
        1.0000   1.0000   1.0000   1.0000   1.0000   1.0000   1.0000   1.0000
        1.0000   1.0000   1.0000   1.0000   1.0000   1.0000   1.0000   1.0000
        1.0000   1.0000   1.0000   1.0000   1.0000   1.0000   1.0000   1.0000
        1.0000   1.0000   1.0000   1.0000   1.0000   1.0000   1.0000   1.0000
        1.0000   1.0000   1.0000   1.0000   1.0000   1.0000   1.0000   1.0000
        1.0000   1.0000   1.0000   1.0000   1.0000   1.0000   1.0000   1.0000
        1.0000   1.0000   1.0000   1.0000   1.0000   1.0000   1.0000   1.0000
        1.0000   1.0000   1.0000   0.0000   1.0000   0.0000   0.0000   0.0000
        0.0000   0.0000   0.0000   0.0000   0.0000   0.0000   0.0000   0.0000
        0.0000   0.0000   0.0000   0.0000   0.0000   0.0000   0.0000   0.0000
        0.0000   0.0000   0.0000   0.0000   0.0000   0.0000   0.0000   0.0000
        0.0000   0.0000   0.0000   0.0000   0.0000   0.0000   0.0000   0.0000
        0.0000   0.0000   0.0000   0.0000   0.0000   0.0000   0.0000   0.0000
        0.0000   0.0000   0.0000   0.0000   0.0000

      Spin-down

        1.0000   1.0000   1.0000   1.0000   1.0000   1.0000   1.0000   1.0000
        1.0000   1.0000   1.0000   1.0000   1.0000   1.0000   1.0000   1.0000
        1.0000   1.0000   1.0000   1.0000   1.0000   1.0000   1.0000   1.0000
        1.0000   1.0000   1.0000   1.0000   1.0000   1.0000   1.0000   1.0000
        1.0000   1.0000   1.0000   1.0000   1.0000   1.0000   1.0000   1.0000
        1.0000   1.0000   1.0000   1.0000   1.0000   1.0000   1.0000   1.0000
        1.0000   1.0000   1.0000   1.0000   1.0000   1.0000   1.0000   1.0000
        1.0000   1.0000   1.0000   1.0000   1.0000   1.0000   1.0000   1.0000
        1.0000   1.0000   1.0000   1.0000   1.0000   1.0000   1.0000   1.0000
        1.0000   1.0000   1.0000   1.0000   1.0000   1.0000   1.0000   1.0000
        1.0000   1.0000   1.0000   1.0000   1.0000   1.0000   1.0000   1.0000
        1.0000   1.0000   1.0000   1.0000   1.0000   1.0000   1.0000   1.0000
        1.0000   1.0000   1.0000   1.0000   1.0000   1.0000   1.0000   1.0000
        1.0000   1.0000   1.0000   1.0000   1.0000   1.0000   1.0000   1.0000
        1.0000   1.0000   1.0000   1.0000   1.0000   1.0000   1.0000   1.0000
        1.0000   1.0000   1.0000   1.0000   1.0000   1.0000   1.0000   1.0000
        1.0000   1.0000   1.0000   1.0000   1.0000   1.0000   1.0000   1.0000
        1.0000   1.0000   1.0000   1.0000   1.0000   1.0000   1.0000   1.0000
        1.0000   1.0000   1.0000   1.0000   1.0000   1.0000   1.0000   1.0000
        1.0000   1.0000   1.0000   1.0000   1.0000   1.0000   1.0000   1.0000
        1.0000   1.0000   1.0000   1.0000   1.0000   1.0000   1.0000   1.0000
        1.0000   1.0000   1.0000   1.0000   1.0000   1.0000   1.0000   1.0000
        1.0000   1.0000   1.0000   1.0000   1.0000   1.0000   1.0000   1.0000
        1.0000   1.0000   1.0000   1.0000   1.0000   1.0000   1.0000   1.0000
        1.0000   1.0000   1.0000   0.0000   0.0000   0.0000   0.0000   0.0000
        0.0000   0.0000   0.0000   0.0000   0.0000   0.0000   0.0000   0.0000
        0.0000   0.0000   0.0000   0.0000   0.0000   0.0000   0.0000   0.0000
        0.0000   0.0000   0.0000   0.0000   0.0000   0.0000   0.0000   0.0000
        0.0000   0.0000   0.0000   0.0000   0.0000   0.0000   0.0000   0.0000
        0.0000   0.0000   0.0000   0.0000   0.0000   0.0000   0.0000   0.0000
        0.0000   0.0000   0.0000   0.0000   0.0000

     Estimated max dynamical RAM per process >     122.39 MB

     Estimated total dynamical RAM >       7.65 GB
     Generating pointlists ...
     new r_m :   0.0333 (alat units)  1.1077 (a.u.) for type    1
     new r_m :   0.0332 (alat units)  1.1031 (a.u.) for type    2
     new r_m :   0.0334 (alat units)  1.1112 (a.u.) for type    3
     new r_m :   0.0332 (alat units)  1.1031 (a.u.) for type    4
     new r_m :   0.0334 (alat units)  1.1106 (a.u.) for type    5

     Check: negative core charge=   -0.000006

     Initial potential from superposition of free atoms

     starting charge  390.98597, renormalised to  391.00000

     negative rho (up, down):  5.517E-02 5.866E-02
     Starting wfcs are  392 randomized atomic wfcs
     Checking if some PAW data can be deallocated... 

     total cpu time spent up to now is      183.9 secs

     Self-consistent Calculation

     iteration #  1     ecut=    40.00 Ry     beta= 0.70
     CG style diagonalization
     ethr =  1.00E-02,  avg # of iterations =  3.1

     negative rho (up, down):  3.266E-01 1.155E-02

     total cpu time spent up to now is      220.4 secs

     total energy              =   -1933.25108220 Ry
     Harris-Foulkes estimate   =   -1946.30756371 Ry
     estimated scf accuracy    <      19.81187609 Ry

     total magnetization       =     1.00 Bohr mag/cell
     absolute magnetization    =     2.13 Bohr mag/cell

     iteration #  2     ecut=    40.00 Ry     beta= 0.70
     CG style diagonalization
     ethr =  5.07E-03,  avg # of iterations =  4.0

     negative rho (up, down):  3.618E-01 9.396E-03

     total cpu time spent up to now is      255.5 secs

     total energy              =   -1937.34470553 Ry
     Harris-Foulkes estimate   =   -1943.67112613 Ry
     estimated scf accuracy    <      12.38207181 Ry

     total magnetization       =     1.00 Bohr mag/cell
     absolute magnetization    =     2.61 Bohr mag/cell

     iteration #  3     ecut=    40.00 Ry     beta= 0.70
     CG style diagonalization
     ethr =  3.17E-03,  avg # of iterations =  3.8

     negative rho (up, down):  4.041E-01 8.857E-03

     total cpu time spent up to now is      288.7 secs

     total energy              =   -1939.68831906 Ry
     Harris-Foulkes estimate   =   -1940.49186089 Ry
     estimated scf accuracy    <       1.52165526 Ry

     total magnetization       =     1.00 Bohr mag/cell
     absolute magnetization    =     1.91 Bohr mag/cell

     iteration #  4     ecut=    40.00 Ry     beta= 0.70
     CG style diagonalization
     c_bands:  1 eigenvalues not converged
     ethr =  3.89E-04,  avg # of iterations =  4.2

     negative rho (up, down):  4.495E-01 8.663E-03

     total cpu time spent up to now is      326.3 secs

     total energy              =   -1939.73960549 Ry
     Harris-Foulkes estimate   =   -1940.47647322 Ry
     estimated scf accuracy    <       2.55609832 Ry

     total magnetization       =     1.00 Bohr mag/cell
     absolute magnetization    =     1.66 Bohr mag/cell

     iteration #  5     ecut=    40.00 Ry     beta= 0.70
     CG style diagonalization
     ethr =  3.89E-04,  avg # of iterations =  3.3

     negative rho (up, down):  4.619E-01 7.770E-03

     total cpu time spent up to now is      354.6 secs

     total energy              =   -1940.20705816 Ry
     Harris-Foulkes estimate   =   -1940.28909225 Ry
     estimated scf accuracy    <       0.24771319 Ry

     total magnetization       =     1.00 Bohr mag/cell
     absolute magnetization    =     1.45 Bohr mag/cell

     iteration #  6     ecut=    40.00 Ry     beta= 0.70
     CG style diagonalization
     c_bands:  1 eigenvalues not converged
     c_bands:  4 eigenvalues not converged
     ethr =  6.34E-05,  avg # of iterations =  3.7

     negative rho (up, down):  4.155E-01 4.947E-02

     total cpu time spent up to now is      387.3 secs

     total energy              =   -1940.21189434 Ry
     Harris-Foulkes estimate   =   -1940.24230609 Ry
     estimated scf accuracy    <       0.26548819 Ry

     total magnetization       =     1.00 Bohr mag/cell
     absolute magnetization    =     1.61 Bohr mag/cell

     iteration #  7     ecut=    40.00 Ry     beta= 0.70
     CG style diagonalization
     ethr =  6.34E-05,  avg # of iterations =  3.0

     negative rho (up, down):  4.270E-01 4.788E-02

     total cpu time spent up to now is      411.8 secs

     total energy              =   -1940.22061994 Ry
     Harris-Foulkes estimate   =   -1940.23086202 Ry
     estimated scf accuracy    <       0.04173470 Ry

     total magnetization       =     1.00 Bohr mag/cell
     absolute magnetization    =     1.39 Bohr mag/cell

     iteration #  8     ecut=    40.00 Ry     beta= 0.70
     CG style diagonalization
     c_bands:  1 eigenvalues not converged
     c_bands:  1 eigenvalues not converged
     ethr =  1.07E-05,  avg # of iterations =  3.7

     negative rho (up, down):  4.246E-01 5.513E-02

     total cpu time spent up to now is      444.2 secs

     total energy              =   -1940.22188621 Ry
     Harris-Foulkes estimate   =   -1940.22757279 Ry
     estimated scf accuracy    <       0.02396332 Ry

     total magnetization       =     1.00 Bohr mag/cell
     absolute magnetization    =     1.36 Bohr mag/cell

     iteration #  9     ecut=    40.00 Ry     beta= 0.70
     CG style diagonalization
     c_bands:  2 eigenvalues not converged
     c_bands:  3 eigenvalues not converged
     ethr =  6.13E-06,  avg # of iterations =  3.6

     negative rho (up, down):  4.385E-01 4.323E-02

     total cpu time spent up to now is      474.8 secs

     total energy              =   -1940.22561263 Ry
     Harris-Foulkes estimate   =   -1940.22636655 Ry
     estimated scf accuracy    <       0.00596420 Ry

     total magnetization       =     1.00 Bohr mag/cell
     absolute magnetization    =     1.30 Bohr mag/cell

     iteration # 10     ecut=    40.00 Ry     beta= 0.70
     CG style diagonalization
     c_bands:  5 eigenvalues not converged
     c_bands:  5 eigenvalues not converged
     ethr =  1.53E-06,  avg # of iterations =  3.9

     negative rho (up, down):  4.523E-01 3.152E-02

     total cpu time spent up to now is      508.5 secs

     total energy              =   -1940.22639274 Ry
     Harris-Foulkes estimate   =   -1940.22627061 Ry
     estimated scf accuracy    <       0.00266699 Ry

     total magnetization       =     1.00 Bohr mag/cell
     absolute magnetization    =     1.29 Bohr mag/cell

     iteration # 11     ecut=    40.00 Ry     beta= 0.70
     CG style diagonalization
     c_bands:  1 eigenvalues not converged
     c_bands:  5 eigenvalues not converged
     ethr =  6.82E-07,  avg # of iterations =  3.5

     negative rho (up, down):  4.607E-01 2.367E-02

     total cpu time spent up to now is      537.9 secs

     total energy              =   -1940.22662433 Ry
     Harris-Foulkes estimate   =   -1940.22664899 Ry
     estimated scf accuracy    <       0.00164015 Ry

     total magnetization       =     1.00 Bohr mag/cell
     absolute magnetization    =     1.28 Bohr mag/cell

     iteration # 12     ecut=    40.00 Ry     beta= 0.70
     CG style diagonalization
     c_bands:  1 eigenvalues not converged
     ethr =  4.19E-07,  avg # of iterations =  3.2

     negative rho (up, down):  4.696E-01 1.659E-02

     total cpu time spent up to now is      564.1 secs

     total energy              =   -1940.22671841 Ry
     Harris-Foulkes estimate   =   -1940.22671053 Ry
     estimated scf accuracy    <       0.00088293 Ry

     total magnetization       =     1.00 Bohr mag/cell
     absolute magnetization    =     1.27 Bohr mag/cell

     iteration # 13     ecut=    40.00 Ry     beta= 0.70
     CG style diagonalization
     c_bands:  1 eigenvalues not converged
     ethr =  2.26E-07,  avg # of iterations =  3.2

     negative rho (up, down):  4.710E-01 1.510E-02

     total cpu time spent up to now is      590.5 secs

     total energy              =   -1940.22677982 Ry
     Harris-Foulkes estimate   =   -1940.22681259 Ry
     estimated scf accuracy    <       0.00042113 Ry

     total magnetization       =     1.00 Bohr mag/cell
     absolute magnetization    =     1.26 Bohr mag/cell

     iteration # 14     ecut=    40.00 Ry     beta= 0.70
     CG style diagonalization
     ethr =  1.08E-07,  avg # of iterations =  3.0

     negative rho (up, down):  4.791E-01 9.582E-03

     total cpu time spent up to now is      615.0 secs

     total energy              =   -1940.22678949 Ry
     Harris-Foulkes estimate   =   -1940.22680135 Ry
     estimated scf accuracy    <       0.00023899 Ry

     total magnetization       =     1.00 Bohr mag/cell
     absolute magnetization    =     1.25 Bohr mag/cell

     iteration # 15     ecut=    40.00 Ry     beta= 0.70
     CG style diagonalization
     ethr =  6.11E-08,  avg # of iterations =  3.4

     negative rho (up, down):  4.823E-01 8.618E-03

     total cpu time spent up to now is      643.6 secs

     total energy              =   -1940.22687213 Ry
     Harris-Foulkes estimate   =   -1940.22686464 Ry
     estimated scf accuracy    <       0.00002561 Ry

     total magnetization       =     1.00 Bohr mag/cell
     absolute magnetization    =     1.24 Bohr mag/cell

     iteration # 16     ecut=    40.00 Ry     beta= 0.70
     CG style diagonalization
     ethr =  6.55E-09,  avg # of iterations =  3.7

     negative rho (up, down):  4.822E-01 8.654E-03

     total cpu time spent up to now is      675.9 secs

     total energy              =   -1940.22689702 Ry
     Harris-Foulkes estimate   =   -1940.22689078 Ry
     estimated scf accuracy    <       0.00000470 Ry

     total magnetization       =     1.00 Bohr mag/cell
     absolute magnetization    =     1.24 Bohr mag/cell

     iteration # 17     ecut=    40.00 Ry     beta= 0.70
     CG style diagonalization
     ethr =  1.20E-09,  avg # of iterations =  3.4

     negative rho (up, down):  4.822E-01 8.667E-03

     total cpu time spent up to now is      704.6 secs

     total energy              =   -1940.22690708 Ry
     Harris-Foulkes estimate   =   -1940.22689986 Ry
     estimated scf accuracy    <       0.00000218 Ry

     total magnetization       =     1.00 Bohr mag/cell
     absolute magnetization    =     1.23 Bohr mag/cell

     iteration # 18     ecut=    40.00 Ry     beta= 0.70
     CG style diagonalization
     ethr =  5.58E-10,  avg # of iterations =  3.6

     negative rho (up, down):  4.823E-01 8.666E-03

     total cpu time spent up to now is      734.9 secs

     total energy              =   -1940.22691674 Ry
     Harris-Foulkes estimate   =   -1940.22691157 Ry
     estimated scf accuracy    <       0.00000167 Ry

     total magnetization       =     1.00 Bohr mag/cell
     absolute magnetization    =     1.23 Bohr mag/cell

     iteration # 19     ecut=    40.00 Ry     beta= 0.70
     CG style diagonalization
     ethr =  4.28E-10,  avg # of iterations =  3.7

     negative rho (up, down):  4.823E-01 8.668E-03

     total cpu time spent up to now is      766.5 secs

     total energy              =   -1940.22692572 Ry
     Harris-Foulkes estimate   =   -1940.22692334 Ry
     estimated scf accuracy    <       0.00000195 Ry

     total magnetization       =     1.00 Bohr mag/cell
     absolute magnetization    =     1.22 Bohr mag/cell

     iteration # 20     ecut=    40.00 Ry     beta= 0.70
     CG style diagonalization
     ethr =  4.28E-10,  avg # of iterations =  3.6

     negative rho (up, down):  4.822E-01 8.681E-03

     total cpu time spent up to now is      797.3 secs

     total energy              =   -1940.22693053 Ry
     Harris-Foulkes estimate   =   -1940.22693230 Ry
     estimated scf accuracy    <       0.00000069 Ry

     total magnetization       =     1.00 Bohr mag/cell
     absolute magnetization    =     1.22 Bohr mag/cell

     iteration # 21     ecut=    40.00 Ry     beta= 0.70
     CG style diagonalization
     ethr =  1.77E-10,  avg # of iterations =  4.0

     negative rho (up, down):  4.822E-01 8.684E-03

     total cpu time spent up to now is      832.7 secs

     total energy              =   -1940.22693289 Ry
     Harris-Foulkes estimate   =   -1940.22693945 Ry
     estimated scf accuracy    <       0.00000052 Ry

     total magnetization       =     1.00 Bohr mag/cell
     absolute magnetization    =     1.21 Bohr mag/cell

     iteration # 22     ecut=    40.00 Ry     beta= 0.70
     CG style diagonalization
     ethr =  1.33E-10,  avg # of iterations =  4.2

     negative rho (up, down):  4.822E-01 8.684E-03

     total cpu time spent up to now is      869.8 secs

     total energy              =   -1940.22694285 Ry
     Harris-Foulkes estimate   =   -1940.22694311 Ry
     estimated scf accuracy    <       0.00000008 Ry

     total magnetization       =     1.00 Bohr mag/cell
     absolute magnetization    =     1.21 Bohr mag/cell

     iteration # 23     ecut=    40.00 Ry     beta= 0.70
     CG style diagonalization
     ethr =  2.16E-11,  avg # of iterations =  4.0

     negative rho (up, down):  4.822E-01 8.689E-03

     total cpu time spent up to now is      905.1 secs

     total energy              =   -1940.22694330 Ry
     Harris-Foulkes estimate   =   -1940.22694337 Ry
     estimated scf accuracy    <       0.00000004 Ry

     total magnetization       =     1.00 Bohr mag/cell
     absolute magnetization    =     1.21 Bohr mag/cell

     iteration # 24     ecut=    40.00 Ry     beta= 0.70
     CG style diagonalization
     ethr =  1.14E-11,  avg # of iterations =  3.7

     negative rho (up, down):  4.822E-01 8.683E-03
 
     Magnetic moment per site:
     atom:    1    charge:    0.8307    magn:    0.0001    constr:    0.0000
     atom:    2    charge:    0.8260    magn:    0.0013    constr:    0.0000
     atom:    3    charge:    0.8267    magn:    0.0008    constr:    0.0000
     atom:    4    charge:    0.8296    magn:    0.0000    constr:    0.0000
     atom:    5    charge:    0.8323    magn:    0.0008    constr:    0.0000
     atom:    6    charge:    0.8305    magn:   -0.0001    constr:    0.0000
     atom:    7    charge:    0.8312    magn:    0.0008    constr:    0.0000
     atom:    8    charge:    0.8288    magn:    0.0007    constr:    0.0000
     atom:    9    charge:    0.8315    magn:    0.0009    constr:    0.0000
     atom:   10    charge:    0.8219    magn:    0.0064    constr:    0.0000
     atom:   11    charge:    0.8258    magn:    0.0004    constr:    0.0000
     atom:   12    charge:    0.8339    magn:    0.0009    constr:    0.0000
     atom:   13    charge:    0.8326    magn:   -0.0001    constr:    0.0000
     atom:   14    charge:    0.8304    magn:   -0.0001    constr:    0.0000
     atom:   15    charge:    0.8299    magn:    0.0006    constr:    0.0000
     atom:   16    charge:    0.8328    magn:    0.0046    constr:    0.0000
     atom:   17    charge:    0.8412    magn:    0.0154    constr:    0.0000
     atom:   18    charge:    0.8295    magn:    0.0132    constr:    0.0000
     atom:   19    charge:    0.8438    magn:    0.0072    constr:    0.0000
     atom:   20    charge:    0.8339    magn:    0.0010    constr:    0.0000
     atom:   21    charge:    0.8323    magn:    0.0008    constr:    0.0000
     atom:   22    charge:    0.8280    magn:    0.0001    constr:    0.0000
     atom:   23    charge:    0.8244    magn:    0.0003    constr:    0.0000
     atom:   24    charge:    0.8256    magn:    0.0079    constr:    0.0000
     atom:   25    charge:    1.6747    magn:    0.1733    constr:    0.0000
     atom:   26    charge:    0.8295    magn:    0.0132    constr:    0.0000
     atom:   27    charge:    0.8258    magn:    0.0004    constr:    0.0000
     atom:   28    charge:    0.8296    magn:    0.0000    constr:    0.0000
     atom:   29    charge:    0.8276    magn:    0.0007    constr:    0.0000
     atom:   30    charge:    0.8289    magn:    0.0004    constr:    0.0000
     atom:   31    charge:    0.8294    magn:    0.0026    constr:    0.0000
     atom:   32    charge:    0.8255    magn:    0.0079    constr:    0.0000
     atom:   33    charge:    0.8412    magn:    0.0154    constr:    0.0000
     atom:   34    charge:    0.8219    magn:    0.0064    constr:    0.0000
     atom:   35    charge:    0.8268    magn:    0.0008    constr:    0.0000
     atom:   36    charge:    0.8254    magn:   -0.0000    constr:    0.0000
     atom:   37    charge:    0.8262    magn:    0.0000    constr:    0.0000
     atom:   38    charge:    0.8289    magn:    0.0004    constr:    0.0000
     atom:   39    charge:    0.8244    magn:    0.0003    constr:    0.0000
     atom:   40    charge:    0.8328    magn:    0.0046    constr:    0.0000
     atom:   41    charge:    0.8315    magn:    0.0009    constr:    0.0000
     atom:   42    charge:    0.8261    magn:    0.0013    constr:    0.0000
     atom:   43    charge:    0.8253    magn:    0.0011    constr:    0.0000
     atom:   44    charge:    0.8254    magn:   -0.0000    constr:    0.0000
     atom:   45    charge:    0.8276    magn:    0.0007    constr:    0.0000
     atom:   46    charge:    0.8280    magn:    0.0001    constr:    0.0000
     atom:   47    charge:    0.8299    magn:    0.0006    constr:    0.0000
     atom:   48    charge:    0.8288    magn:    0.0007    constr:    0.0000
     atom:   49    charge:    0.8307    magn:    0.0001    constr:    0.0000
     atom:   50    charge:    2.7472    magn:   -0.0004    constr:    0.0000
     atom:   51    charge:    2.7454    magn:   -0.0005    constr:    0.0000
     atom:   52    charge:    2.7373    magn:   -0.0019    constr:    0.0000
     atom:   53    charge:    2.7463    magn:   -0.0003    constr:    0.0000
     atom:   54    charge:    2.7467    magn:   -0.0004    constr:    0.0000
     atom:   55    charge:    2.7433    magn:    0.0004    constr:    0.0000
     atom:   56    charge:    2.7428    magn:    0.0002    constr:    0.0000
     atom:   57    charge:    2.7432    magn:    0.0017    constr:    0.0000
     atom:   58    charge:    2.7432    magn:    0.0006    constr:    0.0000
     atom:   59    charge:    2.7393    magn:   -0.0033    constr:    0.0000
     atom:   60    charge:    2.7311    magn:   -0.0045    constr:    0.0000
     atom:   61    charge:    2.7476    magn:    0.0010    constr:    0.0000
     atom:   62    charge:    2.7426    magn:    0.0020    constr:    0.0000
     atom:   63    charge:    2.7433    magn:    0.0004    constr:    0.0000
     atom:   64    charge:    2.7490    magn:   -0.0003    constr:    0.0000
     atom:   65    charge:    2.7484    magn:    0.0012    constr:    0.0000
     atom:   66    charge:    2.7398    magn:    0.0062    constr:    0.0000
     atom:   67    charge:    1.6730    magn:   -0.0031    constr:    0.0000
     atom:   68    charge:    2.7576    magn:    0.0096    constr:    0.0000
     atom:   69    charge:    2.7476    magn:    0.0010    constr:    0.0000
     atom:   70    charge:    2.7467    magn:   -0.0004    constr:    0.0000
     atom:   71    charge:    2.7470    magn:   -0.0001    constr:    0.0000
     atom:   72    charge:    2.7428    magn:   -0.0003    constr:    0.0000
     atom:   73    charge:    2.7395    magn:   -0.0019    constr:    0.0000
     atom:   74    charge:    2.7296    magn:   -0.0021    constr:    0.0000
     atom:   75    charge:    1.6710    magn:   -0.0031    constr:    0.0000
     atom:   76    charge:    2.7311    magn:   -0.0045    constr:    0.0000
     atom:   77    charge:    2.7462    magn:   -0.0003    constr:    0.0000
     atom:   78    charge:    2.7454    magn:   -0.0003    constr:    0.0000
     atom:   79    charge:    2.7434    magn:   -0.0002    constr:    0.0000
     atom:   80    charge:    2.7425    magn:   -0.0003    constr:    0.0000
     atom:   81    charge:    2.7395    magn:   -0.0019    constr:    0.0000
     atom:   82    charge:    2.7399    magn:    0.0063    constr:    0.0000
     atom:   83    charge:    2.7393    magn:   -0.0033    constr:    0.0000
     atom:   84    charge:    2.7373    magn:   -0.0019    constr:    0.0000
     atom:   85    charge:    2.7428    magn:   -0.0005    constr:    0.0000
     atom:   86    charge:    2.7435    magn:    0.0001    constr:    0.0000
     atom:   87    charge:    2.7434    magn:   -0.0002    constr:    0.0000
     atom:   88    charge:    2.7428    magn:   -0.0003    constr:    0.0000
     atom:   89    charge:    2.7484    magn:    0.0012    constr:    0.0000
     atom:   90    charge:    2.7432    magn:    0.0006    constr:    0.0000
     atom:   91    charge:    2.7454    magn:   -0.0005    constr:    0.0000
     atom:   92    charge:    2.7486    magn:   -0.0002    constr:    0.0000
     atom:   93    charge:    2.7428    magn:   -0.0005    constr:    0.0000
     atom:   94    charge:    2.7454    magn:   -0.0003    constr:    0.0000
     atom:   95    charge:    2.7470    magn:   -0.0001    constr:    0.0000
     atom:   96    charge:    2.7490    magn:   -0.0003    constr:    0.0000
     atom:   97    charge:    2.7432    magn:    0.0017    constr:    0.0000
     atom:   98    charge:    2.7472    magn:   -0.0004    constr:    0.0000

     total cpu time spent up to now is      937.0 secs

     End of self-consistent calculation

 ------ SPIN UP ------------


          k = 0.0000 0.0000 0.0000 ( 77434 PWs)   bands (ev):

   -21.7348 -21.4769 -21.3699 -21.3674 -21.3497 -21.3200 -21.2323 -20.7976
   -20.6346 -20.6306 -20.6120 -20.5376 -20.5187 -20.3917 -20.2770 -20.2742
   -20.2550 -20.1349 -20.0889 -19.5396 -19.3823 -19.3765 -19.3752 -19.3641
   -19.3626 -19.3552 -19.3545 -19.3381 -19.3049 -19.1493 -19.1463 -19.0132
   -18.9629 -18.9551 -18.9323 -18.7643 -18.7500 -18.5254 -18.5225 -18.5150
   -18.5012 -18.4375 -18.4337 -18.3777 -18.3607 -18.3256 -18.3197 -17.0146
   -15.0926 -13.0998 -12.7506 -12.7486 -12.7389 -12.7058 -12.6954 -12.6442
   -12.5431 -12.5145 -12.5139 -12.4749 -12.4134 -12.1300 -12.0570 -12.0412
   -12.0237 -11.9660 -11.9520 -11.5212 -11.4018 -11.3926 -11.3716 -11.3669
   -11.3636 -11.3563 -11.3544 -11.3106 -11.2875 -11.1012 -11.0649 -10.8555
   -10.7062 -10.6959 -10.6738 -10.6620 -10.5199 -10.0515 -10.0330  -9.9869
    -9.9205  -9.8658  -9.8208  -9.3681  -9.3246  -9.3052  -9.2805  -9.2652
    -9.2614  -9.2220  -9.0222  -8.9160  -8.9141  -8.8850  -8.8841  -8.8797
    -8.8711  -8.8499  -8.8399  -8.8392  -8.8260  -8.8134  -8.8066  -8.8038
    -8.8034  -8.8014  -8.7861  -8.7752  -8.7269  -8.7044  -8.6717  -8.6553
    -8.4699  -8.4663  -8.1845  -8.1840  -8.1634  -8.1306  -8.0788  -7.8921
    -7.8892  -7.8098  -7.8054  -7.7909  -7.7258  -7.7165  -7.5338  -7.4891
    -7.4866  -7.4432  -7.4266  -7.4238  -7.4158  -7.4040  -7.3825  -7.3390
    -7.3283  -7.3239  -7.3082  -7.3005  -7.2327  -7.2230  -7.2056  -7.0509
    -7.0132  -6.9980  -6.9541  -6.8217  -6.6693  -6.5658  -6.2126  -6.1715
    -6.1625  -6.1357  -6.1254  -6.0521  -6.0478  -6.0464  -6.0349  -6.0340
    -6.0306  -6.0253  -6.0192  -5.9909  -5.8698  -5.8461  -5.8081  -5.7259
    -5.5091  -5.4395  -5.4349  -5.4186  -5.3472  -5.2501  -5.2011  -5.1653
    -4.7722  -4.7667  -4.7494  -4.7479  -4.6810  -4.6400  -4.5433  -4.5164
    -4.4796  -4.4737  -4.3256  -3.5485  -0.0945   0.1801   0.7045   0.7084
     0.7212   0.7218   0.7318   0.7436   0.7981   0.8004   0.8174   0.8190
     0.8193   0.8322   0.8410   0.8619   0.8702   0.8788   0.9073   0.9366
     0.9368   1.1279   1.2144   1.2226   1.2400   1.2662   1.2949   1.3285
     1.3289   1.3311   1.3415   1.3443   1.3749   1.4405   1.4409   1.4422
     1.4508   1.4537   1.4729   1.8829   2.0997   2.1020   2.1039   2.1095
     2.1157   2.1162   2.1322   2.3131   2.3308

 ------ SPIN DOWN ----------


          k = 0.0000 0.0000 0.0000 ( 77434 PWs)   bands (ev):

   -21.7257 -21.4397 -21.3681 -21.3663 -21.3477 -21.3154 -21.2109 -20.7704
   -20.6336 -20.6270 -20.6074 -20.5348 -20.5123 -20.3837 -20.2737 -20.2710
   -20.2508 -20.1303 -20.0715 -19.5236 -19.3812 -19.3746 -19.3744 -19.3627
   -19.3608 -19.3550 -19.3529 -19.3340 -19.2986 -19.1469 -19.1407 -19.0092
   -18.9623 -18.9532 -18.9287 -18.7618 -18.7416 -18.5249 -18.5196 -18.5138
   -18.4987 -18.4360 -18.4330 -18.3761 -18.3607 -18.3242 -18.3175 -16.8920
   -15.0362 -13.0107 -12.7451 -12.7447 -12.7337 -12.7020 -12.6919 -12.6366
   -12.5394 -12.5085 -12.5079 -12.4635 -12.3989 -12.1182 -12.0520 -12.0354
   -12.0207 -11.9591 -11.9424 -11.4979 -11.3868 -11.3845 -11.3689 -11.3648
   -11.3608 -11.3527 -11.3518 -11.3009 -11.2761 -11.0924 -11.0457 -10.8371
   -10.7017 -10.6924 -10.6640 -10.6566 -10.5043 -10.0425 -10.0245  -9.9802
    -9.9105  -9.8584  -9.8103  -9.3596  -9.3128  -9.2846  -9.2760  -9.2604
    -9.2582  -9.2195  -9.0094  -8.9091  -8.9020  -8.8842  -8.8818  -8.8757
    -8.8685  -8.8455  -8.8360  -8.8236  -8.8105  -8.8052  -8.7993  -8.7990
    -8.7986  -8.7944  -8.7706  -8.7554  -8.7193  -8.6595  -8.6430  -8.6189
    -8.4617  -8.4553  -8.1837  -8.1825  -8.1624  -8.1186  -8.0706  -7.8866
    -7.8143  -7.8016  -7.7951  -7.7740  -7.7091  -7.6785  -7.5243  -7.4843
    -7.4827  -7.4402  -7.4251  -7.4225  -7.4009  -7.3807  -7.3637  -7.3370
    -7.3152  -7.3122  -7.2986  -7.2915  -7.1987  -7.1943  -7.1685  -7.0399
    -7.0107  -6.9963  -6.9412  -6.8078  -6.6639  -6.5584  -6.1679  -6.1615
    -6.1343  -6.1158  -6.1143  -6.0466  -6.0421  -6.0400  -6.0279  -6.0254
    -6.0200  -6.0197  -6.0047  -5.9652  -5.8408  -5.8221  -5.7873  -5.7180
    -5.4762  -5.4337  -5.4233  -5.4069  -5.3106  -5.2314  -5.1897  -5.1431
    -4.7621  -4.7527  -4.7417  -4.7415  -4.6674  -4.6347  -4.5282  -4.5108
    -4.4750  -4.4681  -4.2444  -3.4447   0.1888   0.4406   0.7125   0.7339
     0.7419   0.7476   0.7617   0.7786   0.7965   0.8188   0.8201   0.8218
     0.8259   0.8424   0.8490   0.8827   0.8962   0.9204   0.9497   0.9515
     1.0133   1.1771   1.2525   1.2647   1.2867   1.3025   1.3153   1.3284
     1.3290   1.3319   1.3499   1.3500   1.4019   1.4391   1.4394   1.4409
     1.4505   1.4532   1.4796   1.8878   2.1058   2.1067   2.1161   2.1291
     2.1353   2.1501   2.1953   2.2111   2.3356

     highest occupied, lowest unoccupied level (ev):    -4.2444   -3.5485

!    total energy              =   -1940.22694343 Ry
     Harris-Foulkes estimate   =   -1940.22694342 Ry
     estimated scf accuracy    <          8.6E-09 Ry

     total all-electron energy =     -7770.051420 Ry

     The total energy is the sum of the following terms:

     one-electron contribution =  -10647.79303140 Ry
     hartree contribution      =    5409.62489377 Ry
     xc contribution           =    -430.71307038 Ry
     ewald contribution        =    4372.10078529 Ry
     DFT-D3 Dispersion         =      -0.27019579 Ry
     one-center paw contrib.   =    -643.17632492 Ry

     total magnetization       =     1.00 Bohr mag/cell
     absolute magnetization    =     1.21 Bohr mag/cell

     convergence has been achieved in  24 iterations

     negative rho (up, down):  4.822E-01 8.683E-03

     Forces acting on atoms (cartesian axes, Ry/au):

     atom    1 type  1   force =     0.00018292   -0.00035496    0.00000000
     atom    2 type  1   force =     0.00001126   -0.00024698    0.00000000
     atom    3 type  1   force =    -0.00024089    0.00009839    0.00000000
     atom    4 type  1   force =    -0.00029258    0.00061279    0.00000000
     atom    5 type  1   force =     0.00011935    0.00002149    0.00000000
     atom    6 type  1   force =    -0.00003634    0.00012113    0.00000000
     atom    7 type  1   force =    -0.00013358   -0.00005677    0.00000000
     atom    8 type  1   force =    -0.00013793    0.00025658    0.00000000
     atom    9 type  1   force =     0.00029565   -0.00009295    0.00000000
     atom   10 type  1   force =    -0.00014117    0.00005417    0.00000000
     atom   11 type  1   force =    -0.00051637    0.00013558    0.00000000
     atom   12 type  1   force =    -0.00016235    0.00043962    0.00000000
     atom   13 type  1   force =    -0.00022772    0.00012479    0.00000000
     atom   14 type  1   force =    -0.00012766   -0.00013361    0.00000000
     atom   15 type  1   force =    -0.00001683    0.00015892    0.00000000
     atom   16 type  1   force =     0.00020897    0.00018186    0.00000000
     atom   17 type  1   force =     0.00049787   -0.00022495    0.00000000
     atom   18 type  1   force =    -0.00029122    0.00020540    0.00000000
     atom   19 type  1   force =    -0.00020959    0.00023805    0.00000000
     atom   20 type  1   force =    -0.00030307   -0.00007025    0.00000000
     atom   21 type  1   force =     0.00015592   -0.00017235    0.00000000
     atom   22 type  1   force =     0.00024114   -0.00042085    0.00000000
     atom   23 type  1   force =     0.00009998    0.00052309    0.00000000
     atom   24 type  1   force =     0.00009874    0.00018544    0.00000000
     atom   25 type  4   force =    -0.00070715   -0.00087691    0.00000000
     atom   26 type  1   force =     0.00018692    0.00012592    0.00000000
     atom   27 type  1   force =    -0.00021538    0.00043721    0.00000000
     atom   28 type  1   force =    -0.00049767   -0.00014107    0.00000000
     atom   29 type  1   force =     0.00026849   -0.00036061    0.00000000
     atom   30 type  1   force =     0.00029988   -0.00034932    0.00000000
     atom   31 type  1   force =    -0.00017567    0.00003910    0.00000000
     atom   32 type  1   force =    -0.00009276   -0.00011327    0.00000000
     atom   33 type  1   force =    -0.00004225   -0.00041675    0.00000000
     atom   34 type  1   force =    -0.00011992    0.00006632    0.00000000
     atom   35 type  1   force =    -0.00015734    0.00002985    0.00000000
     atom   36 type  1   force =     0.00000044   -0.00025430    0.00000000
     atom   37 type  1   force =     0.00048764   -0.00034115    0.00000000
     atom   38 type  1   force =     0.00039946   -0.00010949    0.00000000
     atom   39 type  1   force =    -0.00040675   -0.00024431    0.00000000
     atom   40 type  1   force =    -0.00023978   -0.00023500    0.00000000
     atom   41 type  1   force =     0.00010240   -0.00023602    0.00000000
     atom   42 type  1   force =     0.00013802   -0.00006769    0.00000000
     atom   43 type  1   force =     0.00006790   -0.00019872    0.00000000
     atom   44 type  1   force =     0.00008603   -0.00000721    0.00000000
     atom   45 type  1   force =     0.00030894   -0.00005346    0.00000000
     atom   46 type  1   force =     0.00039888    0.00008536    0.00000000
     atom   47 type  1   force =    -0.00021938   -0.00000936    0.00000000
     atom   48 type  1   force =    -0.00043390   -0.00007293    0.00000000
     atom   49 type  1   force =     0.00024416   -0.00020283    0.00000000
     atom   50 type  2   force =     0.00010527    0.00028750    0.00000000
     atom   51 type  2   force =     0.00011360    0.00010531    0.00000000
     atom   52 type  2   force =    -0.00026751    0.00008658    0.00000000
     atom   53 type  2   force =    -0.00005975    0.00013469    0.00000000
     atom   54 type  2   force =     0.00066519    0.00001064    0.00000000
     atom   55 type  2   force =    -0.00020394   -0.00012459    0.00000000
     atom   56 type  2   force =    -0.00039938    0.00030176    0.00000000
     atom   57 type  2   force =    -0.00039713    0.00041205    0.00000000
     atom   58 type  2   force =     0.00004410    0.00020129    0.00000000
     atom   59 type  2   force =    -0.00022807   -0.00011436    0.00000000
     atom   60 type  2   force =    -0.00081233    0.00012138    0.00000000
     atom   61 type  2   force =    -0.00026422    0.00002450    0.00000000
     atom   62 type  2   force =     0.00015917   -0.00016663    0.00000000
     atom   63 type  2   force =    -0.00004803    0.00027885    0.00000000
     atom   64 type  2   force =    -0.00011097    0.00022082    0.00000000
     atom   65 type  2   force =     0.00000560   -0.00013281    0.00000000
     atom   66 type  2   force =     0.00011790    0.00005700    0.00000000
     atom   67 type  3   force =     0.00050371    0.00025331    0.00000000
     atom   68 type  2   force =    -0.00095544    0.00020021    0.00000000
     atom   69 type  2   force =    -0.00038199    0.00009981    0.00000000
     atom   70 type  2   force =     0.00015858   -0.00054966    0.00000000
     atom   71 type  2   force =     0.00028052   -0.00027955    0.00000000
     atom   72 type  2   force =     0.00002826   -0.00008779    0.00000000
     atom   73 type  2   force =     0.00033278   -0.00005218    0.00000000
     atom   74 type  2   force =     0.00074487   -0.00031647    0.00000000
     atom   75 type  5   force =     0.00014864    0.00091593    0.00000000
     atom   76 type  2   force =    -0.00053502    0.00062115    0.00000000
     atom   77 type  2   force =    -0.00028177    0.00002942    0.00000000
     atom   78 type  2   force =     0.00010816   -0.00050651    0.00000000
     atom   79 type  2   force =    -0.00004079    0.00002738    0.00000000
     atom   80 type  2   force =     0.00046896   -0.00022991    0.00000000
     atom   81 type  2   force =     0.00019071   -0.00020195    0.00000000
     atom   82 type  2   force =     0.00037391   -0.00026607    0.00000000
     atom   83 type  2   force =     0.00003761    0.00026901    0.00000000
     atom   84 type  2   force =    -0.00018688    0.00031097    0.00000000
     atom   85 type  2   force =     0.00003647   -0.00012667    0.00000000
     atom   86 type  2   force =     0.00036649   -0.00008495    0.00000000
     atom   87 type  2   force =     0.00004912    0.00009318    0.00000000
     atom   88 type  2   force =     0.00014074    0.00000583    0.00000000
     atom   89 type  2   force =     0.00020905   -0.00007499    0.00000000
     atom   90 type  2   force =     0.00000714   -0.00014993    0.00000000
     atom   91 type  2   force =     0.00011153   -0.00001738    0.00000000
     atom   92 type  2   force =     0.00015687    0.00008246    0.00000000
     atom   93 type  2   force =     0.00026287    0.00023900    0.00000000
     atom   94 type  2   force =     0.00064237    0.00023668    0.00000000
     atom   95 type  2   force =     0.00052189   -0.00014746    0.00000000
     atom   96 type  2   force =    -0.00017219   -0.00009767    0.00000000
     atom   97 type  2   force =    -0.00044882    0.00011826    0.00000000
     atom   98 type  2   force =    -0.00005354   -0.00009439    0.00000000

     Total force =     0.004040     Total SCF correction =     0.000199


     Computing stress (Cartesian axis) and pressure


     negative rho (up, down):  4.822E-01 8.683E-03
          total   stress  (Ry/bohr**3)                   (kbar)     P=   -0.13
   0.00000037  -0.00000005   0.00000000          0.05     -0.01      0.00
  -0.00000005   0.00000042   0.00000000         -0.01      0.06      0.00
   0.00000000   0.00000000  -0.00000334          0.00      0.00     -0.49


     BFGS Geometry Optimization

     number of scf cycles    =   1
     number of bfgs steps    =   0

     enthalpy new            =   -1940.2269434312 Ry

     new trust radius        =       0.0011265126 bohr
     new conv_thr            =       0.0000000100 Ry

     new unit-cell volume =  36224.22690 a.u.^3 (  5367.87654 Ang^3 )
     density =      0.36317 g/cm^3

CELL_PARAMETERS (alat= 33.23461096)
   1.001300524  -0.000541050   0.000000000
  -0.501118820   0.866882686   0.000000000
   0.000000000   0.000000000   1.137203616

ATOMIC_POSITIONS (crystal)
B        0.047342593   0.094749696   0.500000000
B        0.047506397   0.237833618   0.500000000
B        0.047436343   0.381027042   0.500000000
B        0.047167017   0.523795508   0.500000000
B        0.047475387   0.666654720   0.500000000
B        0.047835510   0.809621753   0.500000000
B        0.047690404   0.952305480   0.500000000
B        0.190034325   0.094441102   0.500000000
B        0.189469781   0.236804679   0.500000000
B        0.190395953   0.380733664   0.500000000
B        0.189520160   0.524242207   0.500000000
B        0.189477480   0.666954880   0.500000000
B        0.190293427   0.809706343   0.500000000
B        0.190376976   0.952162108   0.500000000
B        0.333344597   0.094561250   0.500000000
B        0.332955777   0.236261337   0.500000000
B        0.331741132   0.377209559   0.500000000
B        0.332619334   0.526875931   0.500000000
B        0.331669797   0.668333838   0.500000000
B        0.333048377   0.810523037   0.500000000
B        0.333346714   0.952523462   0.500000000
B        0.476313803   0.095186074   0.500000000
B        0.476368063   0.237874933   0.500000000
B        0.476456470   0.380820909   0.500000000
C2       0.477753773   0.522208572   0.500000000
B        0.473132024   0.667380328   0.500000000
B        0.475761718   0.810481769   0.500000000
B        0.476207016   0.952831749   0.500000000
B        0.618994109   0.095228875   0.500000000
B        0.619178522   0.238007671   0.500000000
B        0.619245943   0.380751791   0.500000000
B        0.619178880   0.523543911   0.500000000
B        0.622780854   0.668256328   0.500000000
B        0.619265967   0.809603444   0.500000000
B        0.618973626   0.952562011   0.500000000
B        0.761883073   0.095222709   0.500000000
B        0.761898645   0.238100334   0.500000000
B        0.761991624   0.380821606   0.500000000
B        0.762125390   0.523634063   0.500000000
B        0.763734331   0.667043961   0.500000000
B        0.763192516   0.810529368   0.500000000
B        0.762163812   0.952490862   0.500000000
B        0.904849791   0.095146364   0.500000000
B        0.904774712   0.238115227   0.500000000
B        0.904769390   0.381006453   0.500000000
B        0.904813157   0.523688078   0.500000000
B        0.905437644   0.666656549   0.500000000
B        0.905555342   0.809964073   0.500000000
B        0.905245340   0.952653019   0.500000000
N        0.095013714   0.047298019   0.500000000
N        0.094592401   0.189775425   0.500000000
N        0.095322784   0.333384966   0.500000000
N        0.094622821   0.476151844   0.500000000
N        0.094560488   0.618943166   0.500000000
N        0.095143342   0.761935476   0.500000000
N        0.095256655   0.904744921   0.500000000
N        0.237993292   0.047248803   0.500000000
N        0.237578170   0.189533423   0.500000000
N        0.236897318   0.331738563   0.500000000
N        0.237772158   0.476842428   0.500000000
N        0.236453881   0.619390972   0.500000000
N        0.237698755   0.762299616   0.500000000
N        0.238063986   0.904857192   0.500000000
N        0.381124509   0.047477737   0.500000000
N        0.381006552   0.189450355   0.500000000
N        0.380366872   0.330991749   0.500000000
C1       0.384301828   0.477179163   0.500000000
N        0.378226345   0.621763762   0.500000000
N        0.380604965   0.763544412   0.500000000
N        0.381054879   0.905440312   0.500000000
N        0.523937966   0.047836896   0.500000000
N        0.523977714   0.190432831   0.500000000
N        0.524054048   0.333284276   0.500000000
N        0.524170843   0.475831443   0.500000000
C3       0.522835811   0.615725067   0.500000000
N        0.523157234   0.762227926   0.500000000
N        0.523847392   0.905378887   0.500000000
N        0.666652128   0.047644393   0.500000000
N        0.666715015   0.190411893   0.500000000
N        0.666831367   0.333170034   0.500000000
N        0.666715181   0.475946731   0.500000000
N        0.669011756   0.619629644   0.500000000
N        0.668261957   0.763102416   0.500000000
N        0.666617065   0.904679755   0.500000000
N        0.809566395   0.047645223   0.500000000
N        0.809525413   0.190478877   0.500000000
N        0.809590796   0.333286939   0.500000000
N        0.809567644   0.476022491   0.500000000
N        0.810549209   0.618990955   0.500000000
N        0.810468112   0.762420913   0.500000000
N        0.810227754   0.905409828   0.500000000
N        0.952405812   0.047598811   0.500000000
N        0.952359708   0.190438108   0.500000000
N        0.952359661   0.333350273   0.500000000
N        0.952165206   0.476061751   0.500000000
N        0.952522635   0.618874241   0.500000000
N        0.952752391   0.762006355   0.500000000
N        0.952705052   0.904988498   0.500000000



     Writing output data file C2Cn.save/
     NEW-OLD atomic charge density approx. for the potential
     NEW k-points:
   0.0000000   0.0000000   0.0000000   1.0000000
   0.0000000   0.0000000   0.0000000   1.0000000

     Check: negative core charge=   -0.000006

     negative rho (up, down):  4.822E-01 4.355E-03
     extrapolated charge  391.00765, renormalised to  391.00000

     total cpu time spent up to now is      956.0 secs

     Self-consistent Calculation

     iteration #  1     ecut=    40.00 Ry     beta= 0.70
     CG style diagonalization
     ethr =  1.00E-06,  avg # of iterations =  2.0

     Threshold (ethr) on eigenvalues was too large:
     Diagonalizing with lowered threshold

     CG style diagonalization
     ethr =  6.38E-10,  avg # of iterations = 18.0

     negative rho (up, down):  4.821E-01 7.986E-03

     total cpu time spent up to now is     1165.0 secs

     total energy              =   -1940.22694597 Ry
     Harris-Foulkes estimate   =   -1940.02500335 Ry
     estimated scf accuracy    <       0.00001011 Ry

     total magnetization       =     1.00 Bohr mag/cell
     absolute magnetization    =     1.21 Bohr mag/cell

     iteration #  2     ecut=    40.00 Ry     beta= 0.70
     CG style diagonalization
     ethr =  2.59E-09,  avg # of iterations =  3.9

     negative rho (up, down):  4.821E-01 8.080E-03

     total cpu time spent up to now is     1198.7 secs

     total energy              =   -1940.22694139 Ry
     Harris-Foulkes estimate   =   -1940.22696209 Ry
     estimated scf accuracy    <       0.00007309 Ry

     total magnetization       =     1.00 Bohr mag/cell
     absolute magnetization    =     1.21 Bohr mag/cell

     iteration #  3     ecut=    40.00 Ry     beta= 0.70
     CG style diagonalization
     ethr =  2.59E-09,  avg # of iterations =  3.5

     negative rho (up, down):  4.822E-01 8.246E-03

     total cpu time spent up to now is     1227.9 secs

     total energy              =   -1940.22695078 Ry
     Harris-Foulkes estimate   =   -1940.22695285 Ry
     estimated scf accuracy    <       0.00000571 Ry

     total magnetization       =     1.00 Bohr mag/cell
     absolute magnetization    =     1.21 Bohr mag/cell

     iteration #  4     ecut=    40.00 Ry     beta= 0.70
     CG style diagonalization
     ethr =  1.46E-09,  avg # of iterations =  3.1

     negative rho (up, down):  4.822E-01 8.457E-03

     total cpu time spent up to now is     1253.2 secs

     total energy              =   -1940.22695113 Ry
     Harris-Foulkes estimate   =   -1940.22695168 Ry
     estimated scf accuracy    <       0.00000023 Ry

     total magnetization       =     1.00 Bohr mag/cell
     absolute magnetization    =     1.21 Bohr mag/cell

     iteration #  5     ecut=    40.00 Ry     beta= 0.70
     CG style diagonalization
     ethr =  5.81E-11,  avg # of iterations =  4.0

     negative rho (up, down):  4.822E-01 8.556E-03

     total cpu time spent up to now is     1288.4 secs

     total energy              =   -1940.22695097 Ry
     Harris-Foulkes estimate   =   -1940.22695131 Ry
     estimated scf accuracy    <       0.00000023 Ry

     total magnetization       =     1.00 Bohr mag/cell
     absolute magnetization    =     1.21 Bohr mag/cell

     iteration #  6     ecut=    40.00 Ry     beta= 0.70
     CG style diagonalization
     ethr =  5.81E-11,  avg # of iterations =  3.2

     negative rho (up, down):  4.822E-01 8.595E-03

     total cpu time spent up to now is     1314.6 secs

     total energy              =   -1940.22695093 Ry
     Harris-Foulkes estimate   =   -1940.22695101 Ry
     estimated scf accuracy    <       0.00000002 Ry

     total magnetization       =     1.00 Bohr mag/cell
     absolute magnetization    =     1.21 Bohr mag/cell

     iteration #  7     ecut=    40.00 Ry     beta= 0.70
     CG style diagonalization
     ethr =  4.89E-12,  avg # of iterations =  3.8

     negative rho (up, down):  4.822E-01 8.637E-03
 
     Magnetic moment per site:
     atom:    1    charge:    0.8307    magn:    0.0001    constr:    0.0000
     atom:    2    charge:    0.8261    magn:    0.0013    constr:    0.0000
     atom:    3    charge:    0.8269    magn:    0.0008    constr:    0.0000
     atom:    4    charge:    0.8297    magn:    0.0000    constr:    0.0000
     atom:    5    charge:    0.8321    magn:    0.0008    constr:    0.0000
     atom:    6    charge:    0.8303    magn:   -0.0001    constr:    0.0000
     atom:    7    charge:    0.8312    magn:    0.0008    constr:    0.0000
     atom:    8    charge:    0.8289    magn:    0.0007    constr:    0.0000
     atom:    9    charge:    0.8316    magn:    0.0009    constr:    0.0000
     atom:   10    charge:    0.8218    magn:    0.0064    constr:    0.0000
     atom:   11    charge:    0.8259    magn:    0.0004    constr:    0.0000
     atom:   12    charge:    0.8341    magn:    0.0009    constr:    0.0000
     atom:   13    charge:    0.8324    magn:   -0.0001    constr:    0.0000
     atom:   14    charge:    0.8303    magn:   -0.0001    constr:    0.0000
     atom:   15    charge:    0.8299    magn:    0.0006    constr:    0.0000
     atom:   16    charge:    0.8328    magn:    0.0046    constr:    0.0000
     atom:   17    charge:    0.8411    magn:    0.0154    constr:    0.0000
     atom:   18    charge:    0.8292    magn:    0.0132    constr:    0.0000
     atom:   19    charge:    0.8440    magn:    0.0071    constr:    0.0000
     atom:   20    charge:    0.8341    magn:    0.0009    constr:    0.0000
     atom:   21    charge:    0.8321    magn:    0.0008    constr:    0.0000
     atom:   22    charge:    0.8280    magn:    0.0001    constr:    0.0000
     atom:   23    charge:    0.8244    magn:    0.0003    constr:    0.0000
     atom:   24    charge:    0.8256    magn:    0.0079    constr:    0.0000
     atom:   25    charge:    1.6744    magn:    0.1734    constr:    0.0000
     atom:   26    charge:    0.8292    magn:    0.0132    constr:    0.0000
     atom:   27    charge:    0.8259    magn:    0.0004    constr:    0.0000
     atom:   28    charge:    0.8297    magn:    0.0000    constr:    0.0000
     atom:   29    charge:    0.8276    magn:    0.0006    constr:    0.0000
     atom:   30    charge:    0.8290    magn:    0.0004    constr:    0.0000
     atom:   31    charge:    0.8293    magn:    0.0026    constr:    0.0000
     atom:   32    charge:    0.8256    magn:    0.0079    constr:    0.0000
     atom:   33    charge:    0.8412    magn:    0.0154    constr:    0.0000
     atom:   34    charge:    0.8218    magn:    0.0063    constr:    0.0000
     atom:   35    charge:    0.8269    magn:    0.0008    constr:    0.0000
     atom:   36    charge:    0.8253    magn:   -0.0001    constr:    0.0000
     atom:   37    charge:    0.8261    magn:    0.0000    constr:    0.0000
     atom:   38    charge:    0.8290    magn:    0.0004    constr:    0.0000
     atom:   39    charge:    0.8244    magn:    0.0003    constr:    0.0000
     atom:   40    charge:    0.8328    magn:    0.0046    constr:    0.0000
     atom:   41    charge:    0.8316    magn:    0.0009    constr:    0.0000
     atom:   42    charge:    0.8261    magn:    0.0013    constr:    0.0000
     atom:   43    charge:    0.8252    magn:    0.0011    constr:    0.0000
     atom:   44    charge:    0.8253    magn:   -0.0000    constr:    0.0000
     atom:   45    charge:    0.8276    magn:    0.0006    constr:    0.0000
     atom:   46    charge:    0.8280    magn:    0.0001    constr:    0.0000
     atom:   47    charge:    0.8299    magn:    0.0006    constr:    0.0000
     atom:   48    charge:    0.8289    magn:    0.0007    constr:    0.0000
     atom:   49    charge:    0.8307    magn:    0.0001    constr:    0.0000
     atom:   50    charge:    2.7473    magn:   -0.0004    constr:    0.0000
     atom:   51    charge:    2.7453    magn:   -0.0005    constr:    0.0000
     atom:   52    charge:    2.7372    magn:   -0.0019    constr:    0.0000
     atom:   53    charge:    2.7463    magn:   -0.0003    constr:    0.0000
     atom:   54    charge:    2.7468    magn:   -0.0004    constr:    0.0000
     atom:   55    charge:    2.7433    magn:    0.0004    constr:    0.0000
     atom:   56    charge:    2.7428    magn:    0.0002    constr:    0.0000
     atom:   57    charge:    2.7431    magn:    0.0017    constr:    0.0000
     atom:   58    charge:    2.7433    magn:    0.0006    constr:    0.0000
     atom:   59    charge:    2.7392    magn:   -0.0033    constr:    0.0000
     atom:   60    charge:    2.7310    magn:   -0.0044    constr:    0.0000
     atom:   61    charge:    2.7476    magn:    0.0010    constr:    0.0000
     atom:   62    charge:    2.7427    magn:    0.0020    constr:    0.0000
     atom:   63    charge:    2.7433    magn:    0.0004    constr:    0.0000
     atom:   64    charge:    2.7490    magn:   -0.0003    constr:    0.0000
     atom:   65    charge:    2.7484    magn:    0.0012    constr:    0.0000
     atom:   66    charge:    2.7400    magn:    0.0063    constr:    0.0000
     atom:   67    charge:    1.6732    magn:   -0.0030    constr:    0.0000
     atom:   68    charge:    2.7576    magn:    0.0096    constr:    0.0000
     atom:   69    charge:    2.7476    magn:    0.0010    constr:    0.0000
     atom:   70    charge:    2.7468    magn:   -0.0004    constr:    0.0000
     atom:   71    charge:    2.7470    magn:   -0.0001    constr:    0.0000
     atom:   72    charge:    2.7427    magn:   -0.0003    constr:    0.0000
     atom:   73    charge:    2.7397    magn:   -0.0019    constr:    0.0000
     atom:   74    charge:    2.7296    magn:   -0.0021    constr:    0.0000
     atom:   75    charge:    1.6708    magn:   -0.0032    constr:    0.0000
     atom:   76    charge:    2.7311    magn:   -0.0044    constr:    0.0000
     atom:   77    charge:    2.7463    magn:   -0.0003    constr:    0.0000
     atom:   78    charge:    2.7455    magn:   -0.0003    constr:    0.0000
     atom:   79    charge:    2.7434    magn:   -0.0002    constr:    0.0000
     atom:   80    charge:    2.7424    magn:   -0.0003    constr:    0.0000
     atom:   81    charge:    2.7397    magn:   -0.0019    constr:    0.0000
     atom:   82    charge:    2.7399    magn:    0.0063    constr:    0.0000
     atom:   83    charge:    2.7392    magn:   -0.0033    constr:    0.0000
     atom:   84    charge:    2.7373    magn:   -0.0019    constr:    0.0000
     atom:   85    charge:    2.7428    magn:   -0.0005    constr:    0.0000
     atom:   86    charge:    2.7436    magn:    0.0001    constr:    0.0000
     atom:   87    charge:    2.7434    magn:   -0.0002    constr:    0.0000
     atom:   88    charge:    2.7427    magn:   -0.0003    constr:    0.0000
     atom:   89    charge:    2.7484    magn:    0.0012    constr:    0.0000
     atom:   90    charge:    2.7433    magn:    0.0006    constr:    0.0000
     atom:   91    charge:    2.7453    magn:   -0.0005    constr:    0.0000
     atom:   92    charge:    2.7486    magn:   -0.0002    constr:    0.0000
     atom:   93    charge:    2.7428    magn:   -0.0005    constr:    0.0000
     atom:   94    charge:    2.7455    magn:   -0.0003    constr:    0.0000
     atom:   95    charge:    2.7470    magn:   -0.0001    constr:    0.0000
     atom:   96    charge:    2.7490    magn:   -0.0003    constr:    0.0000
     atom:   97    charge:    2.7431    magn:    0.0017    constr:    0.0000
     atom:   98    charge:    2.7473    magn:   -0.0004    constr:    0.0000

     total cpu time spent up to now is     1348.1 secs

     End of self-consistent calculation

 ------ SPIN UP ------------


          k = 0.0000 0.0000 0.0000 ( 77434 PWs)   bands (ev):

   -21.7347 -21.4771 -21.3698 -21.3672 -21.3500 -21.3196 -21.2314 -20.7973
   -20.6342 -20.6305 -20.6115 -20.5374 -20.5187 -20.3919 -20.2770 -20.2744
   -20.2545 -20.1345 -20.0886 -19.5393 -19.3825 -19.3766 -19.3746 -19.3639
   -19.3620 -19.3556 -19.3546 -19.3382 -19.3051 -19.1486 -19.1456 -19.0128
   -18.9629 -18.9549 -18.9321 -18.7645 -18.7501 -18.5250 -18.5226 -18.5149
   -18.5004 -18.4374 -18.4336 -18.3772 -18.3605 -18.3258 -18.3199 -17.0162
   -15.0936 -13.0997 -12.7505 -12.7486 -12.7385 -12.7057 -12.6953 -12.6441
   -12.5429 -12.5146 -12.5141 -12.4743 -12.4132 -12.1301 -12.0566 -12.0410
   -12.0237 -11.9660 -11.9519 -11.5212 -11.4021 -11.3926 -11.3719 -11.3666
   -11.3633 -11.3552 -11.3544 -11.3105 -11.2879 -11.1013 -11.0652 -10.8556
   -10.7062 -10.6959 -10.6735 -10.6616 -10.5200 -10.0511 -10.0327  -9.9866
    -9.9210  -9.8661  -9.8209  -9.3678  -9.3247  -9.3051  -9.2807  -9.2652
    -9.2611  -9.2223  -9.0221  -8.9159  -8.9146  -8.8845  -8.8839  -8.8797
    -8.8716  -8.8503  -8.8396  -8.8395  -8.8254  -8.8135  -8.8066  -8.8036
[...]
     atom:   55    charge:    2.7432    magn:    0.0004    constr:    0.0000
     atom:   56    charge:    2.7429    magn:    0.0002    constr:    0.0000
     atom:   57    charge:    2.7433    magn:    0.0017    constr:    0.0000
     atom:   58    charge:    2.7430    magn:    0.0006    constr:    0.0000
     atom:   59    charge:    2.7390    magn:   -0.0033    constr:    0.0000
     atom:   60    charge:    2.7313    magn:   -0.0044    constr:    0.0000
     atom:   61    charge:    2.7472    magn:    0.0010    constr:    0.0000
     atom:   62    charge:    2.7430    magn:    0.0020    constr:    0.0000
     atom:   63    charge:    2.7432    magn:    0.0004    constr:    0.0000
     atom:   64    charge:    2.7489    magn:   -0.0003    constr:    0.0000
     atom:   65    charge:    2.7484    magn:    0.0012    constr:    0.0000
     atom:   66    charge:    2.7396    magn:    0.0063    constr:    0.0000
     atom:   67    charge:    1.6727    magn:   -0.0031    constr:    0.0000
     atom:   68    charge:    2.7573    magn:    0.0097    constr:    0.0000
     atom:   69    charge:    2.7472    magn:    0.0010    constr:    0.0000
     atom:   70    charge:    2.7468    magn:   -0.0004    constr:    0.0000
     atom:   71    charge:    2.7471    magn:   -0.0001    constr:    0.0000
     atom:   72    charge:    2.7425    magn:   -0.0003    constr:    0.0000
     atom:   73    charge:    2.7392    magn:   -0.0019    constr:    0.0000
     atom:   74    charge:    2.7293    magn:   -0.0022    constr:    0.0000
     atom:   75    charge:    1.6705    magn:   -0.0030    constr:    0.0000
     atom:   76    charge:    2.7313    magn:   -0.0044    constr:    0.0000
     atom:   77    charge:    2.7465    magn:   -0.0003    constr:    0.0000
     atom:   78    charge:    2.7455    magn:   -0.0003    constr:    0.0000
     atom:   79    charge:    2.7438    magn:   -0.0002    constr:    0.0000
     atom:   80    charge:    2.7421    magn:   -0.0003    constr:    0.0000
     atom:   81    charge:    2.7392    magn:   -0.0019    constr:    0.0000
     atom:   82    charge:    2.7396    magn:    0.0063    constr:    0.0000
     atom:   83    charge:    2.7390    magn:   -0.0033    constr:    0.0000
     atom:   84    charge:    2.7372    magn:   -0.0019    constr:    0.0000
     atom:   85    charge:    2.7429    magn:   -0.0005    constr:    0.0000
     atom:   86    charge:    2.7437    magn:    0.0001    constr:    0.0000
     atom:   87    charge:    2.7438    magn:   -0.0002    constr:    0.0000
     atom:   88    charge:    2.7425    magn:   -0.0003    constr:    0.0000
     atom:   89    charge:    2.7484    magn:    0.0012    constr:    0.0000
     atom:   90    charge:    2.7430    magn:    0.0006    constr:    0.0000
     atom:   91    charge:    2.7452    magn:   -0.0005    constr:    0.0000
     atom:   92    charge:    2.7485    magn:   -0.0002    constr:    0.0000
     atom:   93    charge:    2.7429    magn:   -0.0005    constr:    0.0000
     atom:   94    charge:    2.7455    magn:   -0.0003    constr:    0.0000
     atom:   95    charge:    2.7471    magn:   -0.0001    constr:    0.0000
     atom:   96    charge:    2.7489    magn:   -0.0003    constr:    0.0000
     atom:   97    charge:    2.7433    magn:    0.0017    constr:    0.0000
     atom:   98    charge:    2.7473    magn:   -0.0004    constr:    0.0000

     total cpu time spent up to now is     5314.3 secs

     End of self-consistent calculation

 ------ SPIN UP ------------


          k = 0.0000 0.0000 0.0000 ( 77440 PWs)   bands (ev):

   -21.7343 -21.4752 -21.3702 -21.3676 -21.3504 -21.3193 -21.2308 -20.7961
   -20.6345 -20.6304 -20.6116 -20.5374 -20.5189 -20.3921 -20.2770 -20.2744
   -20.2544 -20.1342 -20.0878 -19.5384 -19.3826 -19.3767 -19.3754 -19.3645
   -19.3625 -19.3548 -19.3548 -19.3378 -19.3048 -19.1490 -19.1454 -19.0131
   -18.9630 -18.9549 -18.9320 -18.7645 -18.7494 -18.5252 -18.5227 -18.5152
   -18.5006 -18.4377 -18.4337 -18.3774 -18.3608 -18.3256 -18.3200 -17.0157
   -15.0903 -13.0981 -12.7506 -12.7490 -12.7387 -12.7061 -12.6952 -12.6445
   -12.5431 -12.5144 -12.5139 -12.4742 -12.4131 -12.1300 -12.0566 -12.0412
   -12.0237 -11.9656 -11.9517 -11.5210 -11.4019 -11.3926 -11.3719 -11.3671
   -11.3632 -11.3560 -11.3546 -11.3100 -11.2878 -11.1011 -11.0649 -10.8552
   -10.7064 -10.6960 -10.6735 -10.6617 -10.5195 -10.0512 -10.0329  -9.9867
    -9.9209  -9.8658  -9.8210  -9.3675  -9.3251  -9.3050  -9.2807  -9.2651
    -9.2611  -9.2229  -9.0225  -8.9156  -8.9144  -8.8857  -8.8843  -8.8803
    -8.8712  -8.8505  -8.8396  -8.8385  -8.8256  -8.8135  -8.8069  -8.8040
    -8.8030  -8.8015  -8.7867  -8.7746  -8.7256  -8.7029  -8.6714  -8.6550
    -8.4695  -8.4653  -8.1851  -8.1848  -8.1642  -8.1302  -8.0780  -7.8928
    -7.8884  -7.8097  -7.8053  -7.7906  -7.7255  -7.7165  -7.5341  -7.4888
    -7.4853  -7.4436  -7.4263  -7.4248  -7.4159  -7.4028  -7.3833  -7.3395
    -7.3284  -7.3241  -7.3077  -7.3020  -7.2321  -7.2224  -7.2044  -7.0519
    -7.0134  -6.9985  -6.9541  -6.8214  -6.6683  -6.5664  -6.2116  -6.1713
    -6.1627  -6.1357  -6.1255  -6.0523  -6.0481  -6.0467  -6.0352  -6.0340
    -6.0302  -6.0255  -6.0193  -5.9909  -5.8691  -5.8470  -5.8079  -5.7267
    -5.5090  -5.4398  -5.4347  -5.4186  -5.3475  -5.2504  -5.2030  -5.1641
    -4.7725  -4.7667  -4.7492  -4.7481  -4.6814  -4.6401  -4.5434  -4.5165
    -4.4797  -4.4740  -4.3266  -3.5479  -0.0957   0.1801   0.7046   0.7082
     0.7209   0.7214   0.7314   0.7432   0.7981   0.8000   0.8174   0.8190
     0.8190   0.8323   0.8411   0.8615   0.8698   0.8791   0.9069   0.9365
     0.9367   1.1274   1.2140   1.2217   1.2399   1.2662   1.2946   1.3284
     1.3287   1.3311   1.3415   1.3446   1.3753   1.4404   1.4409   1.4423
     1.4508   1.4539   1.4731   1.8829   2.0977   2.1027   2.1041   2.1091
     2.1157   2.1316   2.2990   2.3072   2.3197

 ------ SPIN DOWN ----------


          k = 0.0000 0.0000 0.0000 ( 77440 PWs)   bands (ev):

   -21.7254 -21.4382 -21.3684 -21.3665 -21.3484 -21.3147 -21.2093 -20.7688
   -20.6333 -20.6269 -20.6070 -20.5346 -20.5125 -20.3840 -20.2736 -20.2711
   -20.2501 -20.1296 -20.0703 -19.5223 -19.3815 -19.3748 -19.3746 -19.3631
   -19.3606 -19.3545 -19.3531 -19.3337 -19.2984 -19.1466 -19.1399 -19.0090
   -18.9624 -18.9530 -18.9284 -18.7620 -18.7409 -18.5246 -18.5197 -18.5141
   -18.4981 -18.4362 -18.4330 -18.3759 -18.3608 -18.3242 -18.3178 -16.8928
   -15.0338 -13.0090 -12.7451 -12.7451 -12.7335 -12.7023 -12.6917 -12.6369
   -12.5394 -12.5084 -12.5080 -12.4626 -12.3986 -12.1181 -12.0517 -12.0354
   -12.0207 -11.9587 -11.9421 -11.4977 -11.3869 -11.3845 -11.3692 -11.3649
   -11.3604 -11.3525 -11.3520 -11.3002 -11.2763 -11.0923 -11.0456 -10.8368
   -10.7019 -10.6925 -10.6636 -10.6563 -10.5038 -10.0422 -10.0244  -9.9801
    -9.9109  -9.8584  -9.8105  -9.3589  -9.3133  -9.2845  -9.2761  -9.2604
    -9.2580  -9.2204  -9.0097  -8.9089  -8.9025  -8.8848  -8.8820  -8.8762
    -8.8687  -8.8461  -8.8358  -8.8231  -8.8105  -8.8051  -8.7995  -8.7990
    -8.7982  -8.7948  -8.7708  -8.7548  -8.7182  -8.6592  -8.6426  -8.6174
    -8.4613  -8.4542  -8.1847  -8.1830  -8.1632  -8.1182  -8.0696  -7.8873
    -7.8141  -7.8013  -7.7952  -7.7737  -7.7089  -7.6783  -7.5245  -7.4841
    -7.4815  -7.4406  -7.4248  -7.4235  -7.3998  -7.3814  -7.3637  -7.3374
    -7.3152  -7.3123  -7.3002  -7.2910  -7.1982  -7.1930  -7.1676  -7.0408
    -7.0109  -6.9968  -6.9413  -6.8074  -6.6629  -6.5590  -6.1678  -6.1617
    -6.1342  -6.1160  -6.1133  -6.0469  -6.0424  -6.0403  -6.0283  -6.0253
    -6.0199  -6.0196  -6.0046  -5.9651  -5.8416  -5.8213  -5.7871  -5.7188
    -5.4760  -5.4340  -5.4232  -5.4067  -5.3107  -5.2317  -5.1915  -5.1417
    -4.7621  -4.7528  -4.7420  -4.7413  -4.6678  -4.6348  -4.5281  -4.5109
    -4.4751  -4.4684  -4.2454  -3.4438   0.1888   0.4400   0.7124   0.7338
     0.7414   0.7472   0.7611   0.7783   0.7966   0.8186   0.8199   0.8217
     0.8254   0.8425   0.8491   0.8823   0.8959   0.9207   0.9496   0.9515
     1.0126   1.1766   1.2522   1.2642   1.2864   1.3017   1.3150   1.3282
     1.3288   1.3318   1.3498   1.3501   1.4022   1.4390   1.4394   1.4409
     1.4505   1.4532   1.4797   1.8877   2.1061   2.1070   2.1165   2.1352
     2.1396   2.3222   2.3283   2.3405   2.3568

     highest occupied, lowest unoccupied level (ev):    -4.2454   -3.5479

!    total energy              =   -1940.22701637 Ry
     Harris-Foulkes estimate   =   -1940.22701636 Ry
     estimated scf accuracy    <          7.5E-11 Ry

     total all-electron energy =     -7770.051493 Ry

     The total energy is the sum of the following terms:

     one-electron contribution =  -10647.16870026 Ry
     hartree contribution      =    5409.30957406 Ry
     xc contribution           =    -430.70707182 Ry
     ewald contribution        =    4371.78557035 Ry
     DFT-D3 Dispersion         =      -0.27018394 Ry
     one-center paw contrib.   =    -643.17620475 Ry

     total magnetization       =     1.00 Bohr mag/cell
     absolute magnetization    =     1.21 Bohr mag/cell

     convergence has been achieved in  20 iterations

     negative rho (up, down):  4.822E-01 8.702E-03

     Forces acting on atoms (cartesian axes, Ry/au):

     atom    1 type  1   force =    -0.00003017    0.00001920    0.00000000
     atom    2 type  1   force =     0.00005086    0.00002550    0.00000000
     atom    3 type  1   force =     0.00003541    0.00005336    0.00000000
     atom    4 type  1   force =     0.00003987   -0.00001879    0.00000000
     atom    5 type  1   force =     0.00002533   -0.00009019    0.00000000
     atom    6 type  1   force =    -0.00003109   -0.00000220    0.00000000
     atom    7 type  1   force =    -0.00008032    0.00006574    0.00000000
     atom    8 type  1   force =    -0.00005120    0.00008055    0.00000000
     atom    9 type  1   force =    -0.00000577    0.00000489    0.00000000
     atom   10 type  1   force =     0.00003163    0.00001605    0.00000000
     atom   11 type  1   force =    -0.00000476    0.00001953    0.00000000
     atom   12 type  1   force =     0.00003941   -0.00001957    0.00000000
     atom   13 type  1   force =     0.00004849   -0.00002392    0.00000000
     atom   14 type  1   force =    -0.00001231    0.00004872    0.00000000
     atom   15 type  1   force =    -0.00002286    0.00006099    0.00000000
     atom   16 type  1   force =    -0.00000787    0.00006076    0.00000000
     atom   17 type  1   force =     0.00005562   -0.00000995    0.00000000
     atom   18 type  1   force =     0.00001251    0.00001629    0.00000000
     atom   19 type  1   force =    -0.00005340    0.00002412    0.00000000
     atom   20 type  1   force =     0.00002456   -0.00002512    0.00000000
     atom   21 type  1   force =     0.00007844    0.00003532    0.00000000
     atom   22 type  1   force =     0.00005360    0.00002765    0.00000000
     atom   23 type  1   force =    -0.00004555    0.00005882    0.00000000
     atom   24 type  1   force =     0.00002672   -0.00002777    0.00000000
     atom   25 type  4   force =     0.00018489    0.00003223    0.00000000
     atom   26 type  1   force =    -0.00005985   -0.00001409    0.00000000
     atom   27 type  1   force =    -0.00003144   -0.00001408    0.00000000
     atom   28 type  1   force =     0.00001817   -0.00001878    0.00000000
     atom   29 type  1   force =     0.00001678   -0.00000722    0.00000000
     atom   30 type  1   force =    -0.00006547    0.00002455    0.00000000
     atom   31 type  1   force =    -0.00005874    0.00003778    0.00000000
     atom   32 type  1   force =     0.00003269   -0.00001784    0.00000000
     atom   33 type  1   force =     0.00008540   -0.00003289    0.00000000
     atom   34 type  1   force =     0.00000305   -0.00003487    0.00000000
     atom   35 type  1   force =    -0.00003679   -0.00004727    0.00000000
     atom   36 type  1   force =     0.00000126   -0.00001867    0.00000000
     atom   37 type  1   force =    -0.00000583    0.00000656    0.00000000
     atom   38 type  1   force =    -0.00004902    0.00003882    0.00000000
     atom   39 type  1   force =    -0.00007542   -0.00000468    0.00000000
     atom   40 type  1   force =    -0.00003686   -0.00002633    0.00000000
     atom   41 type  1   force =     0.00000019    0.00000069    0.00000000
     atom   42 type  1   force =     0.00000986   -0.00004115    0.00000000
     atom   43 type  1   force =     0.00002600    0.00000304    0.00000000
     atom   44 type  1   force =     0.00003613    0.00002332    0.00000000
     atom   45 type  1   force =     0.00003115   -0.00001354    0.00000000
     atom   46 type  1   force =     0.00001477   -0.00007167    0.00000000
     atom   47 type  1   force =    -0.00005262   -0.00001396    0.00000000
     atom   48 type  1   force =    -0.00008446    0.00000979    0.00000000
     atom   49 type  1   force =    -0.00001808    0.00004293    0.00000000
     atom   50 type  2   force =    -0.00000911   -0.00000047    0.00000000
     atom   51 type  2   force =     0.00000459   -0.00000382    0.00000000
     atom   52 type  2   force =     0.00002683    0.00000911    0.00000000
     atom   53 type  2   force =     0.00000086    0.00001218    0.00000000
     atom   54 type  2   force =    -0.00000979    0.00003241    0.00000000
     atom   55 type  2   force =    -0.00002409    0.00000101    0.00000000
     atom   56 type  2   force =    -0.00000442   -0.00000601    0.00000000
     atom   57 type  2   force =    -0.00001825   -0.00000151    0.00000000
     atom   58 type  2   force =     0.00001663    0.00001259    0.00000000
     atom   59 type  2   force =     0.00003134   -0.00000356    0.00000000
     atom   60 type  2   force =    -0.00000176   -0.00000995    0.00000000
     atom   61 type  2   force =    -0.00001564    0.00000486    0.00000000
     atom   62 type  2   force =    -0.00001703    0.00001739    0.00000000
     atom   63 type  2   force =    -0.00000652    0.00001409    0.00000000
     atom   64 type  2   force =    -0.00000532    0.00000581    0.00000000
     atom   65 type  2   force =    -0.00001346    0.00003070    0.00000000
     atom   66 type  2   force =     0.00004552   -0.00002219    0.00000000
     atom   67 type  3   force =     0.00000398   -0.00004374    0.00000000
     atom   68 type  2   force =    -0.00000543    0.00003991    0.00000000
     atom   69 type  2   force =     0.00001008    0.00002352    0.00000000
     atom   70 type  2   force =    -0.00001336   -0.00000840    0.00000000
     atom   71 type  2   force =     0.00002538   -0.00002320    0.00000000
     atom   72 type  2   force =    -0.00002886    0.00000806    0.00000000
     atom   73 type  2   force =    -0.00001462    0.00001971    0.00000000
     atom   74 type  2   force =     0.00004260   -0.00003809    0.00000000
     atom   75 type  5   force =     0.00002665   -0.00013885    0.00000000
     atom   76 type  2   force =     0.00001069    0.00000701    0.00000000
     atom   77 type  2   force =     0.00000356   -0.00000581    0.00000000
     atom   78 type  2   force =     0.00002715   -0.00002813    0.00000000
     atom   79 type  2   force =     0.00001114   -0.00001887    0.00000000
     atom   80 type  2   force =    -0.00005650    0.00002835    0.00000000
     atom   81 type  2   force =    -0.00002109   -0.00000363    0.00000000
     atom   82 type  2   force =     0.00000451   -0.00001457    0.00000000
     atom   83 type  2   force =     0.00001455   -0.00002665    0.00000000
     atom   84 type  2   force =     0.00000160   -0.00003714    0.00000000
     atom   85 type  2   force =     0.00000165   -0.00003905    0.00000000
     atom   86 type  2   force =     0.00001457   -0.00002429    0.00000000
     atom   87 type  2   force =     0.00000802   -0.00000893    0.00000000
     atom   88 type  2   force =    -0.00003038    0.00002460    0.00000000
     atom   89 type  2   force =    -0.00004281    0.00001067    0.00000000
     atom   90 type  2   force =    -0.00001609   -0.00001758    0.00000000
     atom   91 type  2   force =    -0.00000883   -0.00001228    0.00000000
     atom   92 type  2   force =    -0.00002886   -0.00000270    0.00000000
     atom   93 type  2   force =     0.00001787   -0.00000636    0.00000000
     atom   94 type  2   force =     0.00002150   -0.00001767    0.00000000
     atom   95 type  2   force =     0.00001688   -0.00000398    0.00000000
     atom   96 type  2   force =    -0.00002038    0.00001246    0.00000000
     atom   97 type  2   force =    -0.00001925    0.00001895    0.00000000
     atom   98 type  2   force =    -0.00001917   -0.00000864    0.00000000

     Total force =     0.000494     Total SCF correction =     0.000014


     Computing stress (Cartesian axis) and pressure


     negative rho (up, down):  4.822E-01 8.702E-03
          total   stress  (Ry/bohr**3)                   (kbar)     P=   -0.16
   0.00000004   0.00000001   0.00000000          0.01      0.00      0.00
   0.00000001   0.00000004   0.00000000          0.00      0.01      0.00
   0.00000000   0.00000000  -0.00000334          0.00      0.00     -0.49


     Writing output data file C2Cn.save/
 
     init_run     :      9.26s CPU     12.10s WALL (       2 calls)
     electrons    :   4907.94s CPU   4957.42s WALL (      10 calls)
     update_pot   :     23.85s CPU     23.97s WALL (       8 calls)
     forces       :     33.73s CPU     34.89s WALL (      10 calls)
     stress       :    115.61s CPU    116.51s WALL (      10 calls)

     Called by init_run:
     wfcinit      :      3.95s CPU      6.62s WALL (       2 calls)
     potinit      :      1.84s CPU      1.92s WALL (       2 calls)
     hinit0       :      2.61s CPU      2.64s WALL (       2 calls)

     Called by electrons:
     c_bands      :   4777.27s CPU   4820.14s WALL (     123 calls)
     sum_band     :     69.01s CPU     71.14s WALL (     123 calls)
     v_of_rho     :     21.22s CPU     21.76s WALL (     125 calls)
     newd         :      8.36s CPU      9.48s WALL (     125 calls)
     PAW_pot      :     23.42s CPU     23.70s WALL (     133 calls)
     mix_rho      :      1.81s CPU      2.08s WALL (     123 calls)

     Called by c_bands:
     init_us_2    :      4.64s CPU      4.79s WALL (     552 calls)
     rcgdiagg     :   4656.82s CPU   4696.88s WALL (     268 calls)
     wfcrot       :    120.26s CPU    122.71s WALL (     236 calls)

     Called by sum_band:
     sum_band:bec :      0.16s CPU      0.17s WALL (     262 calls)
     addusdens    :      7.61s CPU      8.96s WALL (     123 calls)

     Called by *cgdiagg:
     h_psi        :   2352.79s CPU   2372.89s WALL (  207764 calls)
     s_psi        :   1397.60s CPU   1410.39s WALL (  415292 calls)
     rdiaghg      :      3.49s CPU      3.60s WALL (     236 calls)

     Called by h_psi:
     h_psi:pot    :   2350.47s CPU   2370.54s WALL (  207764 calls)
     h_psi:calbec :    856.23s CPU    863.73s WALL (  207764 calls)
     vloc_psi     :    780.38s CPU    788.85s WALL (  207764 calls)
     add_vuspsi   :    711.62s CPU    716.44s WALL (  207764 calls)
     hs_1psi      :   2947.89s CPU   2972.44s WALL (  207528 calls)
     s_1psi       :   1444.06s CPU   1456.35s WALL (  207528 calls)

     General routines
     calbec       :   1606.78s CPU   1622.08s WALL (  415654 calls)
     fft          :     18.93s CPU     19.15s WALL (    2459 calls)
     ffts         :      0.90s CPU      0.91s WALL (     246 calls)
     fftw         :    736.63s CPU    744.57s WALL (  503954 calls)
 
     Parallel routines
     fft_scatt_xy :     71.91s CPU     72.55s WALL (  506659 calls)
     fft_scatt_yz :    224.21s CPU    227.05s WALL (  506659 calls)
 
     PWSCF        :      1h25m CPU      1h28m WALL

 
   This run was terminated on:  11:59:27   9Jun2021            

=------------------------------------------------------------------------------=
   JOB DONE.
=------------------------------------------------------------------------------=
