
     Program PWSCF v.6.4.1 starts on  8Jun2021 at 17:32:35 

     This program is part of the open-source Quantum ESPRESSO suite
     for quantum simulation of materials; please cite
         "P. Giannozzi et al., J. Phys.:Condens. Matter 21 395502 (2009);
         "P. Giannozzi et al., J. Phys.:Condens. Matter 29 465901 (2017);
          URL http://www.quantum-espresso.org", 
     in publications or presentations arising from this work. More details at
     http://www.quantum-espresso.org/quote

     Parallel version (MPI), running on    64 processors

     MPI processes distributed on     2 nodes
     R & G space division:  proc/nbgrp/npool/nimage =      64
     Waiting for input...
     Reading input from standard input

     Current dimensions of program PWSCF are:
     Max number of different atomic species (ntypx) = 10
     Max number of k-points (npk) =  40000
     Max angular momentum in pseudopotentials (lmaxx) =  3
               file N.pbe-n-kjpaw_psl.1.0.0.UPF: wavefunction(s)  2S renormalized
               file C.pbe-n-kjpaw_psl.1.0.0.UPF: wavefunction(s)  2S 2P renormalized
               file C.pbe-n-kjpaw_psl.1.0.0.UPF: wavefunction(s)  2S 2P renormalized
               file C.pbe-n-kjpaw_psl.1.0.0.UPF: wavefunction(s)  2S 2P renormalized

     --------------------------------------------
     Parameters for DFT-D3 Dispersion Correction:
     --------------------------------------------
       Reference C6 values for interpolation: 

         atom   Coordination number   C6
         B          0.000           214.36
         B          0.971           150.74
         B          1.944           106.23
         B          2.913            62.89
         B          4.586            56.06
         C1         0.000            98.23
         C1         0.987            86.49
         C1         1.998            58.72
         C1         2.999            51.56
         C1         3.984            36.41
         C2         0.000            98.23
         C2         0.987            86.49
         C2         1.998            58.72
         C2         2.999            51.56
         C2         3.984            36.41
         C3         0.000            98.23
         C3         0.987            86.49
         C3         1.998            58.72
         C3         2.999            51.56
         C3         3.984            36.41
         N          0.000            50.54
         N          0.994            44.25
         N          2.014            39.35
         N          2.990            31.16

       Values used:

         atom   Coordination number  R0_AB[au]  C6      C8
         B          3.326            3.039     62.90   2506.23
         B          3.317            3.039     62.90   2506.44
         B          3.318            3.039     62.90   2506.43
         B          3.323            3.039     62.90   2506.29
         B          3.325            3.039     62.90   2506.25
         B          3.324            3.039     62.90   2506.29
         B          3.326            3.039     62.90   2506.23
         B          3.324            3.039     62.90   2506.27
         B          3.323            3.039     62.90   2506.31
         B          3.306            3.039     62.91   2506.69
         B          3.319            3.039     62.90   2506.40
         B          3.325            3.039     62.90   2506.26
         B          3.323            3.039     62.90   2506.30
         B          3.324            3.039     62.90   2506.29
         B          3.324            3.039     62.90   2506.28
         B          3.326            3.039     62.90   2506.23
         B          3.294            3.039     62.92   2506.96
         B          3.281            3.039     62.92   2507.25
         B          3.322            3.039     62.90   2506.33
         B          3.325            3.039     62.90   2506.26
         B          3.325            3.039     62.90   2506.25
         B          3.322            3.039     62.90   2506.32
         B          3.318            3.039     62.90   2506.42
         B          3.305            3.039     62.91   2506.72
         C2         3.237            2.750     49.60   1434.49
         B          3.281            3.039     62.92   2507.25
         B          3.319            3.039     62.90   2506.40
         B          3.323            3.039     62.90   2506.29
         B          3.319            3.039     62.90   2506.38
         B          3.317            3.039     62.90   2506.45
         B          3.306            3.039     62.91   2506.69
         B          3.305            3.039     62.91   2506.72
         B          3.294            3.039     62.92   2506.96
         B          3.306            3.039     62.91   2506.69
         B          3.318            3.039     62.90   2506.43
         B          3.316            3.039     62.90   2506.47
         B          3.316            3.039     62.90   2506.45
         B          3.317            3.039     62.90   2506.45
         B          3.318            3.039     62.90   2506.42
         B          3.326            3.039     62.90   2506.23
         B          3.323            3.039     62.90   2506.31
         B          3.317            3.039     62.90   2506.44
         B          3.319            3.039     62.90   2506.40
         B          3.316            3.039     62.90   2506.47
         B          3.319            3.039     62.90   2506.38
         B          3.322            3.039     62.90   2506.32
         B          3.324            3.039     62.90   2506.28
         B          3.324            3.039     62.90   2506.27
         B          3.326            3.039     62.90   2506.23
         N          3.129            2.478     31.22    688.74
         N          3.129            2.478     31.22    688.75
         N          3.125            2.478     31.22    688.78
         N          3.128            2.478     31.22    688.76
         N          3.129            2.478     31.22    688.74
         N          3.128            2.478     31.22    688.75
         N          3.128            2.478     31.22    688.75
         N          3.128            2.478     31.22    688.75
         N          3.129            2.478     31.22    688.75
         N          3.125            2.478     31.22    688.78
         N          3.123            2.478     31.22    688.80
         N          3.129            2.478     31.22    688.74
         N          3.128            2.478     31.22    688.75
         N          3.128            2.478     31.22    688.75
         N          3.129            2.478     31.22    688.74
         N          3.129            2.478     31.22    688.74
         N          3.130            2.478     31.22    688.73
         C1         3.177            2.750     50.30   1454.65
         N          3.127            2.478     31.22    688.76
         N          3.129            2.478     31.22    688.74
         N          3.129            2.478     31.22    688.74
         N          3.128            2.478     31.22    688.75
         N          3.127            2.478     31.22    688.77
         N          3.123            2.478     31.22    688.81
         N          3.144            2.478     31.21    688.61
         C3         3.177            2.750     50.30   1454.65
         N          3.123            2.478     31.22    688.80
         N          3.128            2.478     31.22    688.76
         N          3.127            2.478     31.22    688.77
         N          3.126            2.478     31.22    688.77
         N          3.125            2.478     31.22    688.78
         N          3.123            2.478     31.22    688.81
         N          3.130            2.478     31.22    688.73
         N          3.125            2.478     31.22    688.78
         N          3.125            2.478     31.22    688.78
         N          3.126            2.478     31.22    688.77
         N          3.126            2.478     31.22    688.78
         N          3.126            2.478     31.22    688.77
         N          3.127            2.478     31.22    688.77
         N          3.129            2.478     31.22    688.74
         N          3.129            2.478     31.22    688.75
         N          3.129            2.478     31.22    688.75
         N          3.129            2.478     31.22    688.74
         N          3.126            2.478     31.22    688.77
         N          3.127            2.478     31.22    688.77
         N          3.128            2.478     31.22    688.75
         N          3.129            2.478     31.22    688.74
         N          3.128            2.478     31.22    688.75
         N          3.129            2.478     31.22    688.74

         Molecular C6 ( Ry / a.u.^6 ) =    437750.45


     gamma-point specific algorithms are used

     Subspace diagonalization in iterative solution of the eigenvalue problem:
     one sub-group per band group will be used
     scalapack distributed-memory algorithm (size of sub-group:  5*  5 procs)

     Message from routine setup:
     DEPRECATED: symmetry with ibrav=0, use correct ibrav instead
 
     Parallelization info
     --------------------
     sticks:   dense  smooth     PW     G-vecs:    dense   smooth      PW
     Min         189     189     46                19338    19338    2406
     Max         192     192     48                19350    19350    2428
     Sum       12173   12173   3053              1238137  1238137  154925
 


     bravais-lattice index     =            0
     lattice parameter (alat)  =      33.2346  a.u.
     unit-cell volume          =   36232.1309 (a.u.)^3
     number of atoms/cell      =           98
     number of atomic types    =            5
     number of electrons       =       391.00
     number of Kohn-Sham states=          245
     kinetic-energy cutoff     =      40.0000  Ry
     charge density cutoff     =     160.0000  Ry
     convergence threshold     =      1.0E-06
     mixing beta               =       0.7000
     number of iterations used =            8  plain     mixing
     Exchange-correlation      = SLA PW PBX PBC ( 1  4  3  4 0 0)
     Using LIBXC version       =    4   3   4
     nstep                     =           50


     celldm(1)=  33.234611  celldm(2)=   0.000000  celldm(3)=   0.000000
     celldm(4)=   0.000000  celldm(5)=   0.000000  celldm(6)=   0.000000

     crystal axes: (cart. coord. in units of alat)
               a(1) = (   1.000986   0.000195   0.000000 )  
               a(2) = (  -0.500324   0.866976   0.000000 )  
               a(3) = (   0.000000   0.000000   1.137204 )  

     reciprocal axes: (cart. coord. in units 2 pi/alat)
               b(1) = (  0.998903  0.576458  0.000000 )  
               b(2) = ( -0.000224  1.153304  0.000000 )  
               b(3) = (  0.000000  0.000000  0.879350 )  


     PseudoPot. # 1 for B  read from file:
     ./pseudo/B.pbe-n-kjpaw_psl.1.0.0.UPF
     MD5 check sum: 8c825a5969375aca5c2c6ad5945b3059
     Pseudo is Projector augmented-wave + core cor, Zval =  3.0
     Generated using "atomic" code by A. Dal Corso v.6.3
     Shape of augmentation charge: PSQ
     Using radial grid of 1059 points,  4 beta functions with: 
                l(1) =   0
                l(2) =   0
                l(3) =   1
                l(4) =   1
     Q(r) pseudized with 0 coefficients 


     PseudoPot. # 2 for N  read from file:
     ./pseudo/N.pbe-n-kjpaw_psl.1.0.0.UPF
     MD5 check sum: 14c48229446f9f2d411169a3abcbc3fa
     Pseudo is Projector augmented-wave + core cor, Zval =  5.0
     Generated using "atomic" code by A. Dal Corso v.6.3
     Shape of augmentation charge: PSQ
     Using radial grid of 1085 points,  4 beta functions with: 
                l(1) =   0
                l(2) =   0
                l(3) =   1
                l(4) =   1
     Q(r) pseudized with 0 coefficients 


     PseudoPot. # 3 for C  read from file:
     ./pseudo/C.pbe-n-kjpaw_psl.1.0.0.UPF
     MD5 check sum: 5f16ad9a65e90284d1d834d4ab3b0f7d
     Pseudo is Projector augmented-wave + core cor, Zval =  4.0
     Generated using "atomic" code by A. Dal Corso v.6.3
     Shape of augmentation charge: PSQ
     Using radial grid of 1073 points,  4 beta functions with: 
                l(1) =   0
                l(2) =   0
                l(3) =   1
                l(4) =   1
     Q(r) pseudized with 0 coefficients 


     PseudoPot. # 4 for C  read from file:
     ./pseudo/C.pbe-n-kjpaw_psl.1.0.0.UPF
     MD5 check sum: 5f16ad9a65e90284d1d834d4ab3b0f7d
     Pseudo is Projector augmented-wave + core cor, Zval =  4.0
     Generated using "atomic" code by A. Dal Corso v.6.3
     Shape of augmentation charge: PSQ
     Using radial grid of 1073 points,  4 beta functions with: 
                l(1) =   0
                l(2) =   0
                l(3) =   1
                l(4) =   1
     Q(r) pseudized with 0 coefficients 


     PseudoPot. # 5 for C  read from file:
     ./pseudo/C.pbe-n-kjpaw_psl.1.0.0.UPF
     MD5 check sum: 5f16ad9a65e90284d1d834d4ab3b0f7d
     Pseudo is Projector augmented-wave + core cor, Zval =  4.0
     Generated using "atomic" code by A. Dal Corso v.6.3
     Shape of augmentation charge: PSQ
     Using radial grid of 1073 points,  4 beta functions with: 
                l(1) =   0
                l(2) =   0
                l(3) =   1
                l(4) =   1
     Q(r) pseudized with 0 coefficients 


     atomic species   valence    mass     pseudopotential
        B              3.00    10.00000     B ( 1.00)
        N              5.00    14.00000     N ( 1.00)
        C1             4.00    12.00000     C ( 1.00)
        C2             4.00    12.00000     C ( 1.00)
        C3             4.00    12.00000     C ( 1.00)

     Starting magnetic structure 
     atomic species   magnetization
        B            0.000
        N            0.000
        C1           1.000
        C2           0.000
        C3           0.000

      2 Sym. Ops. (no inversion) found



   Cartesian axes

     site n.     atom                  positions (alat units)
         1           B   tau(   1) = (  -0.0000690   0.0821323   0.5686018  )
         2           B   tau(   2) = (  -0.0715547   0.2062045   0.5686018  )
         3           B   tau(   3) = (  -0.1431934   0.3302665   0.5686018  )
         4           B   tau(   4) = (  -0.2148096   0.4541034   0.5686018  )
         5           B   tau(   5) = (  -0.2858939   0.5780093   0.5686018  )
         6           B   tau(   6) = (  -0.3571699   0.7019705   0.5686018  )
         7           B   tau(   7) = (  -0.4287457   0.8256506   0.5686018  )
         8           B   tau(   8) = (   0.1428818   0.0818128   0.5686018  )
         9           B   tau(   9) = (   0.0710824   0.2050874   0.5686018  )
        10           B   tau(  10) = (  -0.0001975   0.3302105   0.5686018  )
        11           B   tau(  11) = (  -0.0723540   0.4541556   0.5686018  )
        12           B   tau(  12) = (  -0.1438292   0.5781676   0.5686018  )
        13           B   tau(  13) = (  -0.2146065   0.7020173   0.5686018  )
        14           B   tau(  14) = (  -0.2858477   0.8255042   0.5686018  )
        15           B   tau(  15) = (   0.2863410   0.0818235   0.5686018  )
        16           B   tau(  16) = (   0.2148956   0.2046282   0.5686018  )
        17           B   tau(  17) = (   0.1430252   0.3270707   0.5686018  )
        18           B   tau(  18) = (   0.0699132   0.4554962   0.5686018  )
        19           B   tau(  19) = (  -0.0020332   0.5792880   0.5686018  )
        20           B   tau(  20) = (  -0.0719609   0.7026472   0.5686018  )
        21           B   tau(  21) = (  -0.1428562   0.8257579   0.5686018  )
        22           B   tau(  22) = (   0.4291291   0.0825723   0.5686018  )
        23           B   tau(  23) = (   0.3576435   0.2061085   0.5686018  )
        24           B   tau(  24) = (   0.2854166   0.3290827   0.5686018  )
        25           C2  tau(  25) = (   0.2166968   0.4530041   0.5686018  )
        26           B   tau(  26) = (   0.1411468   0.5788765   0.5686018  )
        27           B   tau(  27) = (   0.0711743   0.7027538   0.5686018  )
        28           B   tau(  28) = (  -0.0000084   0.8261502   0.5686018  )
        29           B   tau(  29) = (   0.5719417   0.0827000   0.5686018  )
        30           B   tau(  30) = (   0.5005898   0.2064362   0.5686018  )
        31           B   tau(  31) = (   0.4291385   0.3303509   0.5686018  )
        32           B   tau(  32) = (   0.3583759   0.4554518   0.5686018  )
        33           B   tau(  33) = (   0.2889226   0.5797724   0.5686018  )
        34           B   tau(  34) = (   0.2145921   0.7022370   0.5686018  )
        35           B   tau(  35) = (   0.1430457   0.8260471   0.5686018  )
        36           B   tau(  36) = (   0.7149557   0.0827432   0.5686018  )
        37           B   tau(  37) = (   0.6434733   0.2066046   0.5686018  )
        38           B   tau(  38) = (   0.5721774   0.3304296   0.5686018  )
        39           B   tau(  39) = (   0.5009880   0.4543886   0.5686018  )
        40           B   tau(  40) = (   0.4308961   0.5787521   0.5686018  )
        41           B   tau(  41) = (   0.3585918   0.7030683   0.5686018  )
        42           B   tau(  42) = (   0.2863058   0.8260372   0.5686018  )
        43           B   tau(  43) = (   0.8580973   0.0826914   0.5686018  )
        44           B   tau(  44) = (   0.7864817   0.2066298   0.5686018  )
        45           B   tau(  45) = (   0.7150121   0.3305051   0.5686018  )
        46           B   tau(  46) = (   0.6437164   0.4542483   0.5686018  )
        47           B   tau(  47) = (   0.5729707   0.5782809   0.5686018  )
        48           B   tau(  48) = (   0.5012504   0.7025255   0.5686018  )
        49           B   tau(  49) = (   0.4294983   0.8261648   0.5686018  )
        50           N   tau(  50) = (   0.0714024   0.0409557   0.5686018  )
        51           N   tau(  51) = (  -0.0003452   0.1644460   0.5686018  )
        52           N   tau(  52) = (  -0.0716420   0.2888952   0.5686018  )
        53           N   tau(  53) = (  -0.1435370   0.4127646   0.5686018  )
        54           N   tau(  54) = (  -0.2149059   0.5366176   0.5686018  )
        55           N   tau(  55) = (  -0.2858898   0.6605924   0.5686018  )
        56           N   tau(  56) = (  -0.3572852   0.7843928   0.5686018  )
        57           N   tau(  57) = (   0.2146143   0.0408902   0.5686018  )
        58           N   tau(  58) = (   0.1428630   0.1640726   0.5686018  )
        59           N   tau(  59) = (   0.0709790   0.2874550   0.5686018  )
        60           N   tau(  60) = (  -0.0009364   0.4130143   0.5686018  )
        61           N   tau(  61) = (  -0.0728480   0.5369597   0.5686018  )
        62           N   tau(  62) = (  -0.1432993   0.6608480   0.5686018  )
        63           N   tau(  63) = (  -0.2143732   0.7844628   0.5686018  )
        64           N   tau(  64) = (   0.3577974   0.0411440   0.5686018  )
        65           N   tau(  65) = (   0.2866461   0.1641682   0.5686018  )
        66           N   tau(  66) = (   0.2150906   0.2863487   0.5686018  )
        67           C1  tau(  67) = (   0.1450952   0.4127225   0.5686018  )
        68           N   tau(  68) = (   0.0685054   0.5385625   0.5686018  )
        69           N   tau(  69) = (  -0.0007832   0.6617795   0.5686018  )
        70           N   tau(  70) = (  -0.0715159   0.7849763   0.5686018  )
        71           N   tau(  71) = (   0.5005065   0.0415941   0.5686018  )
        72           N   tau(  72) = (   0.4291503   0.1652407   0.5686018  )
        73           N   tau(  73) = (   0.3573380   0.2892271   0.5686018  )
        74           N   tau(  74) = (   0.2850194   0.4135581   0.5686018  )
        75           C3  tau(  75) = (   0.2157810   0.5351538   0.5686018  )
        76           N   tau(  76) = (   0.1425125   0.6614750   0.5686018  )
        77           N   tau(  77) = (   0.0714284   0.7850956   0.5686018  )
        78           N   tau(  78) = (   0.6434297   0.0415829   0.5686018  )
        79           N   tau(  79) = (   0.5719857   0.1653124   0.5686018  )
        80           N   tau(  80) = (   0.5004227   0.2891950   0.5686018  )
        81           N   tau(  81) = (   0.4288525   0.4130939   0.5686018  )
        82           N   tau(  82) = (   0.3602216   0.5377229   0.5686018  )
        83           N   tau(  83) = (   0.2872077   0.6619741   0.5686018  )
        84           N   tau(  84) = (   0.2146500   0.7847674   0.5686018  )
        85           N   tau(  85) = (   0.7865072   0.0415527   0.5686018  )
        86           N   tau(  86) = (   0.7149482   0.1653386   0.5686018  )
        87           N   tau(  87) = (   0.6434897   0.2891609   0.5686018  )
        88           N   tau(  88) = (   0.5721341   0.4128958   0.5686018  )
        89           N   tau(  89) = (   0.5018108   0.5368443   0.5686018  )
        90           N   tau(  90) = (   0.4300020   0.6614119   0.5686018  )
        91           N   tau(  91) = (   0.3580746   0.7852471   0.5686018  )
        92           N   tau(  92) = (   0.9295057   0.0414638   0.5686018  )
        93           N   tau(  93) = (   0.8579294   0.1652596   0.5686018  )
        94           N   tau(  94) = (   0.7863645   0.2891533   0.5686018  )
        95           N   tau(  95) = (   0.7148933   0.4129228   0.5686018  )
        96           N   tau(  96) = (   0.6439285   0.5367375   0.5686018  )
        97           N   tau(  97) = (   0.5725567   0.6608646   0.5686018  )
        98           N   tau(  98) = (   0.5008941   0.7848570   0.5686018  )

     number of k points=     1
                       cart. coord. in units 2pi/alat
        k(    1) = (   0.0000000   0.0000000   0.0000000), wk =   1.0000000

     Dense  grid:   619069 G-vectors     FFT dimensions: ( 135, 135, 160)

     Occupations read from input 

      Spin-up

        1.0000   1.0000   1.0000   1.0000   1.0000   1.0000   1.0000   1.0000
        1.0000   1.0000   1.0000   1.0000   1.0000   1.0000   1.0000   1.0000
        1.0000   1.0000   1.0000   1.0000   1.0000   1.0000   1.0000   1.0000
        1.0000   1.0000   1.0000   1.0000   1.0000   1.0000   1.0000   1.0000
        1.0000   1.0000   1.0000   1.0000   1.0000   1.0000   1.0000   1.0000
        1.0000   1.0000   1.0000   1.0000   1.0000   1.0000   1.0000   1.0000
        1.0000   1.0000   1.0000   1.0000   1.0000   1.0000   1.0000   1.0000
        1.0000   1.0000   1.0000   1.0000   1.0000   1.0000   1.0000   1.0000
        1.0000   1.0000   1.0000   1.0000   1.0000   1.0000   1.0000   1.0000
        1.0000   1.0000   1.0000   1.0000   1.0000   1.0000   1.0000   1.0000
        1.0000   1.0000   1.0000   1.0000   1.0000   1.0000   1.0000   1.0000
        1.0000   1.0000   1.0000   1.0000   1.0000   1.0000   1.0000   1.0000
        1.0000   1.0000   1.0000   1.0000   1.0000   1.0000   1.0000   1.0000
        1.0000   1.0000   1.0000   1.0000   1.0000   1.0000   1.0000   1.0000
        1.0000   1.0000   1.0000   1.0000   1.0000   1.0000   1.0000   1.0000
        1.0000   1.0000   1.0000   1.0000   1.0000   1.0000   1.0000   1.0000
        1.0000   1.0000   1.0000   1.0000   1.0000   1.0000   1.0000   1.0000
        1.0000   1.0000   1.0000   1.0000   1.0000   1.0000   1.0000   1.0000
        1.0000   1.0000   1.0000   1.0000   1.0000   1.0000   1.0000   1.0000
        1.0000   1.0000   1.0000   1.0000   1.0000   1.0000   1.0000   1.0000
        1.0000   1.0000   1.0000   1.0000   1.0000   1.0000   1.0000   1.0000
        1.0000   1.0000   1.0000   1.0000   1.0000   1.0000   1.0000   1.0000
        1.0000   1.0000   1.0000   1.0000   1.0000   1.0000   1.0000   1.0000
        1.0000   1.0000   1.0000   1.0000   1.0000   1.0000   1.0000   1.0000
        1.0000   1.0000   1.0000   1.0000   0.0000   0.0000   0.0000   0.0000
        0.0000   0.0000   0.0000   0.0000   0.0000   0.0000   0.0000   0.0000
        0.0000   0.0000   0.0000   0.0000   0.0000   0.0000   0.0000   0.0000
        0.0000   0.0000   0.0000   0.0000   0.0000   0.0000   0.0000   0.0000
        0.0000   0.0000   0.0000   0.0000   0.0000   0.0000   0.0000   0.0000
        0.0000   0.0000   0.0000   0.0000   0.0000   0.0000   0.0000   0.0000
        0.0000   0.0000   0.0000   0.0000   0.0000

      Spin-down

        1.0000   1.0000   1.0000   1.0000   1.0000   1.0000   1.0000   1.0000
        1.0000   1.0000   1.0000   1.0000   1.0000   1.0000   1.0000   1.0000
        1.0000   1.0000   1.0000   1.0000   1.0000   1.0000   1.0000   1.0000
        1.0000   1.0000   1.0000   1.0000   1.0000   1.0000   1.0000   1.0000
        1.0000   1.0000   1.0000   1.0000   1.0000   1.0000   1.0000   1.0000
        1.0000   1.0000   1.0000   1.0000   1.0000   1.0000   1.0000   1.0000
        1.0000   1.0000   1.0000   1.0000   1.0000   1.0000   1.0000   1.0000
        1.0000   1.0000   1.0000   1.0000   1.0000   1.0000   1.0000   1.0000
        1.0000   1.0000   1.0000   1.0000   1.0000   1.0000   1.0000   1.0000
        1.0000   1.0000   1.0000   1.0000   1.0000   1.0000   1.0000   1.0000
        1.0000   1.0000   1.0000   1.0000   1.0000   1.0000   1.0000   1.0000
        1.0000   1.0000   1.0000   1.0000   1.0000   1.0000   1.0000   1.0000
        1.0000   1.0000   1.0000   1.0000   1.0000   1.0000   1.0000   1.0000
        1.0000   1.0000   1.0000   1.0000   1.0000   1.0000   1.0000   1.0000
        1.0000   1.0000   1.0000   1.0000   1.0000   1.0000   1.0000   1.0000
        1.0000   1.0000   1.0000   1.0000   1.0000   1.0000   1.0000   1.0000
        1.0000   1.0000   1.0000   1.0000   1.0000   1.0000   1.0000   1.0000
        1.0000   1.0000   1.0000   1.0000   1.0000   1.0000   1.0000   1.0000
        1.0000   1.0000   1.0000   1.0000   1.0000   1.0000   1.0000   1.0000
        1.0000   1.0000   1.0000   1.0000   1.0000   1.0000   1.0000   1.0000
        1.0000   1.0000   1.0000   1.0000   1.0000   1.0000   1.0000   1.0000
        1.0000   1.0000   1.0000   1.0000   1.0000   1.0000   1.0000   1.0000
        1.0000   1.0000   1.0000   1.0000   1.0000   1.0000   1.0000   1.0000
        1.0000   1.0000   1.0000   1.0000   1.0000   1.0000   1.0000   1.0000
        1.0000   1.0000   0.0000   0.0000   1.0000   0.0000   0.0000   0.0000
        0.0000   0.0000   0.0000   0.0000   0.0000   0.0000   0.0000   0.0000
        0.0000   0.0000   0.0000   0.0000   0.0000   0.0000   0.0000   0.0000
        0.0000   0.0000   0.0000   0.0000   0.0000   0.0000   0.0000   0.0000
        0.0000   0.0000   0.0000   0.0000   0.0000   0.0000   0.0000   0.0000
        0.0000   0.0000   0.0000   0.0000   0.0000   0.0000   0.0000   0.0000
        0.0000   0.0000   0.0000   0.0000   0.0000

     Estimated max dynamical RAM per process >     122.43 MB

     Estimated total dynamical RAM >       7.65 GB
     Generating pointlists ...
     new r_m :   0.0336 (alat units)  1.1166 (a.u.) for type    1
     new r_m :   0.0325 (alat units)  1.0816 (a.u.) for type    2
     new r_m :   0.0339 (alat units)  1.1263 (a.u.) for type    3
     new r_m :   0.0325 (alat units)  1.0816 (a.u.) for type    4
     new r_m :   0.0339 (alat units)  1.1263 (a.u.) for type    5

     Check: negative core charge=   -0.000006

     Initial potential from superposition of free atoms

     starting charge  390.98597, renormalised to  391.00000

     negative rho (up, down):  5.509E-02 5.811E-02
     Starting wfcs are  392 randomized atomic wfcs
     Checking if some PAW data can be deallocated... 

     total cpu time spent up to now is        8.9 secs

     Self-consistent Calculation

     iteration #  1     ecut=    40.00 Ry     beta= 0.70
     CG style diagonalization
     ethr =  1.00E-02,  avg # of iterations =  3.1

     negative rho (up, down):  3.248E-01 9.023E-03

     total cpu time spent up to now is       45.5 secs

     total energy              =   -1933.22371707 Ry
     Harris-Foulkes estimate   =   -1946.24759452 Ry
     estimated scf accuracy    <      19.77260121 Ry

     total magnetization       =     1.00 Bohr mag/cell
     absolute magnetization    =     2.53 Bohr mag/cell

     iteration #  2     ecut=    40.00 Ry     beta= 0.70
     CG style diagonalization
     ethr =  5.06E-03,  avg # of iterations =  4.0

     negative rho (up, down):  3.600E-01 7.752E-03

     total cpu time spent up to now is       81.1 secs

     total energy              =   -1937.28987002 Ry
     Harris-Foulkes estimate   =   -1943.69342423 Ry
     estimated scf accuracy    <      12.52315356 Ry

     total magnetization       =     1.00 Bohr mag/cell
     absolute magnetization    =     2.64 Bohr mag/cell

     iteration #  3     ecut=    40.00 Ry     beta= 0.70
     CG style diagonalization
     ethr =  3.20E-03,  avg # of iterations =  3.8

     negative rho (up, down):  4.016E-01 9.528E-03

     total cpu time spent up to now is      114.7 secs

     total energy              =   -1939.61689024 Ry
     Harris-Foulkes estimate   =   -1940.46345433 Ry
     estimated scf accuracy    <       1.60962113 Ry

     total magnetization       =     1.00 Bohr mag/cell
     absolute magnetization    =     3.09 Bohr mag/cell

     iteration #  4     ecut=    40.00 Ry     beta= 0.70
     CG style diagonalization
     ethr =  4.12E-04,  avg # of iterations =  4.1

     negative rho (up, down):  4.514E-01 8.675E-03

     total cpu time spent up to now is      151.7 secs

     total energy              =   -1939.97137137 Ry
     Harris-Foulkes estimate   =   -1940.41868832 Ry
     estimated scf accuracy    <       1.38122834 Ry

     total magnetization       =     1.00 Bohr mag/cell
     absolute magnetization    =     2.71 Bohr mag/cell

     iteration #  5     ecut=    40.00 Ry     beta= 0.70
     CG style diagonalization
     ethr =  3.53E-04,  avg # of iterations =  3.1

     negative rho (up, down):  4.616E-01 7.860E-03

     total cpu time spent up to now is      177.8 secs

     total energy              =   -1940.15325845 Ry
     Harris-Foulkes estimate   =   -1940.19811997 Ry
     estimated scf accuracy    <       0.11739365 Ry

     total magnetization       =     1.00 Bohr mag/cell
     absolute magnetization    =     2.35 Bohr mag/cell

     iteration #  6     ecut=    40.00 Ry     beta= 0.70
     CG style diagonalization
     c_bands:  4 eigenvalues not converged
     c_bands:  5 eigenvalues not converged
     ethr =  3.00E-05,  avg # of iterations =  4.2

     negative rho (up, down):  4.683E-01 7.163E-03

     total cpu time spent up to now is      215.5 secs

     total energy              =   -1940.17090075 Ry
     Harris-Foulkes estimate   =   -1940.17764413 Ry
     estimated scf accuracy    <       0.02567322 Ry

     total magnetization       =     1.00 Bohr mag/cell
     absolute magnetization    =     2.34 Bohr mag/cell

     iteration #  7     ecut=    40.00 Ry     beta= 0.70
     CG style diagonalization
     c_bands:  5 eigenvalues not converged
     c_bands:  4 eigenvalues not converged
     ethr =  6.57E-06,  avg # of iterations =  7.9

     negative rho (up, down):  4.767E-01 7.262E-03

     total cpu time spent up to now is      284.6 secs

     total energy              =   -1940.17532920 Ry
     Harris-Foulkes estimate   =   -1940.17761891 Ry
     estimated scf accuracy    <       0.01039550 Ry

     total magnetization       =     1.00 Bohr mag/cell
     absolute magnetization    =     2.34 Bohr mag/cell

     iteration #  8     ecut=    40.00 Ry     beta= 0.70
     CG style diagonalization
     c_bands:  3 eigenvalues not converged
     ethr =  2.66E-06,  avg # of iterations =  3.8

     negative rho (up, down):  4.786E-01 7.349E-03

     total cpu time spent up to now is      317.7 secs

     total energy              =   -1940.17734312 Ry
     Harris-Foulkes estimate   =   -1940.17795206 Ry
     estimated scf accuracy    <       0.00178790 Ry

     total magnetization       =     1.00 Bohr mag/cell
     absolute magnetization    =     2.36 Bohr mag/cell

     iteration #  9     ecut=    40.00 Ry     beta= 0.70
     CG style diagonalization
     c_bands:  1 eigenvalues not converged
     ethr =  4.57E-07,  avg # of iterations =  3.6

     negative rho (up, down):  4.795E-01 7.554E-03

     total cpu time spent up to now is      348.4 secs

     total energy              =   -1940.17787582 Ry
     Harris-Foulkes estimate   =   -1940.17787647 Ry
     estimated scf accuracy    <       0.00029093 Ry

     total magnetization       =     1.00 Bohr mag/cell
     absolute magnetization    =     2.37 Bohr mag/cell

     iteration # 10     ecut=    40.00 Ry     beta= 0.70
     CG style diagonalization
     ethr =  7.44E-08,  avg # of iterations =  3.7

     negative rho (up, down):  4.796E-01 7.667E-03

     total cpu time spent up to now is      381.0 secs

     total energy              =   -1940.17798870 Ry
     Harris-Foulkes estimate   =   -1940.17798507 Ry
     estimated scf accuracy    <       0.00006983 Ry

     total magnetization       =     1.00 Bohr mag/cell
     absolute magnetization    =     2.37 Bohr mag/cell

     iteration # 11     ecut=    40.00 Ry     beta= 0.70
     CG style diagonalization
     ethr =  1.79E-08,  avg # of iterations =  3.6

     negative rho (up, down):  4.796E-01 7.753E-03

     total cpu time spent up to now is      412.4 secs

     total energy              =   -1940.17802158 Ry
     Harris-Foulkes estimate   =   -1940.17801181 Ry
     estimated scf accuracy    <       0.00001432 Ry

     total magnetization       =     1.00 Bohr mag/cell
     absolute magnetization    =     2.38 Bohr mag/cell

     iteration # 12     ecut=    40.00 Ry     beta= 0.70
     CG style diagonalization
     ethr =  3.66E-09,  avg # of iterations =  3.9

     negative rho (up, down):  4.796E-01 7.800E-03

     total cpu time spent up to now is      446.7 secs

     total energy              =   -1940.17802991 Ry
     Harris-Foulkes estimate   =   -1940.17802990 Ry
     estimated scf accuracy    <       0.00000707 Ry

     total magnetization       =     1.00 Bohr mag/cell
     absolute magnetization    =     2.39 Bohr mag/cell

     iteration # 13     ecut=    40.00 Ry     beta= 0.70
     CG style diagonalization
     ethr =  1.81E-09,  avg # of iterations =  3.6

     negative rho (up, down):  4.795E-01 7.833E-03

     total cpu time spent up to now is      478.1 secs

     total energy              =   -1940.17803318 Ry
     Harris-Foulkes estimate   =   -1940.17803239 Ry
     estimated scf accuracy    <       0.00000116 Ry

     total magnetization       =     1.00 Bohr mag/cell
     absolute magnetization    =     2.39 Bohr mag/cell

     iteration # 14     ecut=    40.00 Ry     beta= 0.70
     CG style diagonalization
     ethr =  2.97E-10,  avg # of iterations =  4.0

     negative rho (up, down):  4.795E-01 7.843E-03
 
     Magnetic moment per site:
     atom:    1    charge:    0.8514    magn:   -0.0002    constr:    0.0000
     atom:    2    charge:    0.8464    magn:   -0.0006    constr:    0.0000
     atom:    3    charge:    0.8475    magn:   -0.0004    constr:    0.0000
     atom:    4    charge:    0.8494    magn:    0.0001    constr:    0.0000
     atom:    5    charge:    0.8525    magn:   -0.0010    constr:    0.0000
     atom:    6    charge:    0.8509    magn:    0.0002    constr:    0.0000
     atom:    7    charge:    0.8519    magn:   -0.0009    constr:    0.0000
     atom:    8    charge:    0.8507    magn:   -0.0008    constr:    0.0000
     atom:    9    charge:    0.8516    magn:   -0.0011    constr:    0.0000
     atom:   10    charge:    0.8437    magn:   -0.0037    constr:    0.0000
     atom:   11    charge:    0.8474    magn:   -0.0002    constr:    0.0000
     atom:   12    charge:    0.8529    magn:   -0.0015    constr:    0.0000
     atom:   13    charge:    0.8525    magn:    0.0002    constr:    0.0000
     atom:   14    charge:    0.8509    magn:    0.0002    constr:    0.0000
     atom:   15    charge:    0.8509    magn:   -0.0006    constr:    0.0000
     atom:   16    charge:    0.8565    magn:   -0.0061    constr:    0.0000
     atom:   17    charge:    0.8630    magn:   -0.0131    constr:    0.0000
     atom:   18    charge:    0.8512    magn:   -0.0104    constr:    0.0000
     atom:   19    charge:    0.8605    magn:   -0.0101    constr:    0.0000
     atom:   20    charge:    0.8529    magn:   -0.0015    constr:    0.0000
     atom:   21    charge:    0.8525    magn:   -0.0010    constr:    0.0000
     atom:   22    charge:    0.8475    magn:    0.0000    constr:    0.0000
     atom:   23    charge:    0.8442    magn:   -0.0005    constr:    0.0000
     atom:   24    charge:    0.8407    magn:   -0.0091    constr:    0.0000
     atom:   25    charge:    1.5851    magn:   -0.1483    constr:    0.0000
     atom:   26    charge:    0.8513    magn:   -0.0103    constr:    0.0000
     atom:   27    charge:    0.8474    magn:   -0.0002    constr:    0.0000
     atom:   28    charge:    0.8494    magn:    0.0002    constr:    0.0000
     atom:   29    charge:    0.8475    magn:   -0.0008    constr:    0.0000
     atom:   30    charge:    0.8480    magn:   -0.0000    constr:    0.0000
     atom:   31    charge:    0.8470    magn:   -0.0025    constr:    0.0000
     atom:   32    charge:    0.8407    magn:   -0.0091    constr:    0.0000
     atom:   33    charge:    0.8630    magn:   -0.0130    constr:    0.0000
     atom:   34    charge:    0.8437    magn:   -0.0036    constr:    0.0000
     atom:   35    charge:    0.8475    magn:   -0.0004    constr:    0.0000
     atom:   36    charge:    0.8466    magn:    0.0004    constr:    0.0000
     atom:   37    charge:    0.8461    magn:    0.0004    constr:    0.0000
     atom:   38    charge:    0.8480    magn:   -0.0000    constr:    0.0000
     atom:   39    charge:    0.8442    magn:   -0.0005    constr:    0.0000
     atom:   40    charge:    0.8564    magn:   -0.0061    constr:    0.0000
     atom:   41    charge:    0.8515    magn:   -0.0011    constr:    0.0000
     atom:   42    charge:    0.8464    magn:   -0.0005    constr:    0.0000
     atom:   43    charge:    0.8467    magn:   -0.0011    constr:    0.0000
     atom:   44    charge:    0.8466    magn:    0.0003    constr:    0.0000
     atom:   45    charge:    0.8475    magn:   -0.0008    constr:    0.0000
     atom:   46    charge:    0.8475    magn:    0.0000    constr:    0.0000
     atom:   47    charge:    0.8509    magn:   -0.0006    constr:    0.0000
     atom:   48    charge:    0.8507    magn:   -0.0008    constr:    0.0000
     atom:   49    charge:    0.8514    magn:   -0.0002    constr:    0.0000
     atom:   50    charge:    2.6488    magn:    0.0013    constr:    0.0000
     atom:   51    charge:    2.6495    magn:    0.0005    constr:    0.0000
     atom:   52    charge:    2.6366    magn:    0.0086    constr:    0.0000
     atom:   53    charge:    2.6480    magn:    0.0030    constr:    0.0000
     atom:   54    charge:    2.6497    magn:    0.0008    constr:    0.0000
     atom:   55    charge:    2.6403    magn:   -0.0001    constr:    0.0000
     atom:   56    charge:    2.6440    magn:   -0.0003    constr:    0.0000
     atom:   57    charge:    2.6458    magn:   -0.0018    constr:    0.0000
     atom:   58    charge:    2.6454    magn:    0.0060    constr:    0.0000
     atom:   59    charge:    2.6362    magn:    0.0307    constr:    0.0000
     atom:   60    charge:    2.6380    magn:    0.0148    constr:    0.0000
     atom:   61    charge:    2.6447    magn:    0.0100    constr:    0.0000
     atom:   62    charge:    2.6396    magn:    0.0025    constr:    0.0000
     atom:   63    charge:    2.6403    magn:   -0.0001    constr:    0.0000
     atom:   64    charge:    2.6484    magn:    0.0009    constr:    0.0000
     atom:   65    charge:    2.6476    magn:    0.0038    constr:    0.0000
     atom:   66    charge:    2.6476    magn:    0.0075    constr:    0.0000
     atom:   67    charge:    1.7437    magn:    0.1732    constr:    0.0000
     atom:   68    charge:    2.6361    magn:    0.0534    constr:    0.0000
     atom:   69    charge:    2.6448    magn:    0.0100    constr:    0.0000
     atom:   70    charge:    2.6497    magn:    0.0007    constr:    0.0000
     atom:   71    charge:    2.6485    magn:    0.0003    constr:    0.0000
     atom:   72    charge:    2.6435    magn:    0.0003    constr:    0.0000
     atom:   73    charge:    2.6379    magn:    0.0153    constr:    0.0000
     atom:   74    charge:    2.6067    magn:    0.1181    constr:    0.0000
     atom:   75    charge:    1.7437    magn:    0.1730    constr:    0.0000
     atom:   76    charge:    2.6381    magn:    0.0146    constr:    0.0000
     atom:   77    charge:    2.6480    magn:    0.0028    constr:    0.0000
     atom:   78    charge:    2.6461    magn:    0.0006    constr:    0.0000
     atom:   79    charge:    2.6430    magn:    0.0005    constr:    0.0000
     atom:   80    charge:    2.6344    magn:    0.0067    constr:    0.0000
     atom:   81    charge:    2.6378    magn:    0.0153    constr:    0.0000
     atom:   82    charge:    2.6475    magn:    0.0075    constr:    0.0000
     atom:   83    charge:    2.6360    magn:    0.0306    constr:    0.0000
     atom:   84    charge:    2.6366    magn:    0.0084    constr:    0.0000
     atom:   85    charge:    2.6453    magn:    0.0012    constr:    0.0000
     atom:   86    charge:    2.6442    magn:   -0.0001    constr:    0.0000
     atom:   87    charge:    2.6431    magn:    0.0005    constr:    0.0000
     atom:   88    charge:    2.6435    magn:    0.0003    constr:    0.0000
     atom:   89    charge:    2.6476    magn:    0.0038    constr:    0.0000
     atom:   90    charge:    2.6453    magn:    0.0060    constr:    0.0000
     atom:   91    charge:    2.6494    magn:    0.0005    constr:    0.0000
     atom:   92    charge:    2.6493    magn:    0.0003    constr:    0.0000
     atom:   93    charge:    2.6453    magn:    0.0013    constr:    0.0000
     atom:   94    charge:    2.6463    magn:    0.0007    constr:    0.0000
     atom:   95    charge:    2.6486    magn:    0.0003    constr:    0.0000
     atom:   96    charge:    2.6484    magn:    0.0009    constr:    0.0000
     atom:   97    charge:    2.6458    magn:   -0.0018    constr:    0.0000
     atom:   98    charge:    2.6488    magn:    0.0013    constr:    0.0000

     total cpu time spent up to now is      515.4 secs

     End of self-consistent calculation

 ------ SPIN UP ------------


          k = 0.0000 0.0000 0.0000 ( 77463 PWs)   bands (ev):

   -21.9119 -21.6554 -21.3932 -21.3853 -21.3573 -21.2989 -21.2833 -20.8961
   -20.6619 -20.6437 -20.6203 -20.5450 -20.5392 -20.4230 -20.2903 -20.2872
   -20.2693 -20.1291 -20.1141 -19.6015 -19.4260 -19.4054 -19.3902 -19.3879
   -19.3804 -19.3668 -19.3615 -19.3177 -19.3119 -19.1681 -19.1595 -19.0373
   -18.9681 -18.9654 -18.9373 -18.7754 -18.7651 -18.5551 -18.5410 -18.5230
   -18.5224 -18.4658 -18.4199 -18.3921 -18.3581 -18.3393 -18.3288 -16.8693
   -15.0380 -13.1831 -12.7776 -12.7765 -12.7430 -12.7133 -12.7079 -12.6417
   -12.5599 -12.5215 -12.5148 -12.4880 -12.4058 -12.1535 -12.0610 -12.0528
   -12.0219 -11.9928 -11.9398 -11.5708 -11.4286 -11.4118 -11.3921 -11.3876
   -11.3614 -11.3567 -11.3527 -11.3119 -11.3011 -11.1073 -11.0431 -10.8713
   -10.7178 -10.7021 -10.6743 -10.6500 -10.4986 -10.0814 -10.0303 -10.0100
    -9.9352  -9.8849  -9.8164  -9.4118  -9.3393  -9.3256  -9.3098  -9.2909
    -9.2739  -9.2183  -9.0718  -8.9628  -8.9626  -8.9122  -8.9072  -8.8950
    -8.8921  -8.8848  -8.8830  -8.8571  -8.8265  -8.8227  -8.8169  -8.8166
    -8.7939  -8.7933  -8.7901  -8.7456  -8.7342  -8.7019  -8.6567  -8.6431
    -8.4649  -8.4573  -8.2152  -8.1879  -8.1844  -8.1050  -8.0842  -7.9821
    -7.8746  -7.8324  -7.8186  -7.7929  -7.7221  -7.7216  -7.5811  -7.5183
    -7.5018  -7.4697  -7.4603  -7.4438  -7.4275  -7.3914  -7.3905  -7.3370
    -7.3370  -7.3358  -7.3221  -7.2814  -7.2313  -7.2305  -7.2014  -7.0379
    -7.0358  -6.9935  -6.9075  -6.8228  -6.6546  -6.5532  -6.2937  -6.2000
    -6.1862  -6.1461  -6.0982  -6.0771  -6.0746  -6.0633  -6.0586  -6.0552
    -6.0352  -6.0309  -6.0087  -5.9853  -5.8866  -5.8311  -5.8078  -5.7185
    -5.5414  -5.4497  -5.4379  -5.4341  -5.3515  -5.2737  -5.1601  -5.1084
    -4.8067  -4.8039  -4.7762  -4.7595  -4.6957  -4.6751  -4.5785  -4.5163
    -4.4949  -4.4946  -4.4595  -3.6450   0.1846   0.2799   0.6830   0.7025
     0.7137   0.7289   0.7386   0.7423   0.7890   0.8070   0.8082   0.8109
     0.8185   0.8400   0.8539   0.8619   0.8912   0.9151   0.9283   0.9464
     0.9993   1.1500   1.2141   1.2497   1.2647   1.2946   1.3038   1.3186
     1.3253   1.3314   1.3478   1.3634   1.4098   1.4352   1.4385   1.4422
     1.4517   1.4601   1.4840   1.8875   2.0993   2.1019   2.1069   2.1150
     2.1207   2.1407   2.1476   2.2110   2.2639

 ------ SPIN DOWN ----------


          k = 0.0000 0.0000 0.0000 ( 77463 PWs)   bands (ev):

   -21.8473 -21.6306 -21.3906 -21.3814 -21.3542 -21.2876 -21.2632 -20.8718
   -20.6538 -20.6325 -20.6141 -20.5385 -20.5300 -20.4164 -20.2827 -20.2778
   -20.2498 -20.1072 -20.1009 -19.5775 -19.4153 -19.3983 -19.3855 -19.3811
   -19.3717 -19.3614 -19.3472 -19.3014 -19.2973 -19.1535 -19.1481 -19.0270
   -18.9595 -18.9578 -18.9158 -18.7606 -18.7473 -18.5422 -18.5314 -18.5098
   -18.5074 -18.4576 -18.4001 -18.3843 -18.3474 -18.3314 -18.3098 -16.6360
   -14.6796 -13.1763 -12.7761 -12.7745 -12.7420 -12.7122 -12.7077 -12.6421
   -12.5583 -12.5205 -12.5120 -12.4733 -12.4047 -12.1490 -12.0605 -12.0489
   -12.0151 -11.9827 -11.9331 -11.5640 -11.4212 -11.4105 -11.3903 -11.3845
   -11.3603 -11.3547 -11.3490 -11.3033 -11.2906 -11.0592 -11.0266 -10.8754
   -10.7170 -10.7022 -10.6693 -10.6443 -10.4952 -10.0751 -10.0275 -10.0017
    -9.9238  -9.8621  -9.8012  -9.4074  -9.3186  -9.3140  -9.3051  -9.2852
    -9.2722  -9.2137  -9.0665  -8.9496  -8.9087  -8.9059  -8.9035  -8.8913
    -8.8912  -8.8824  -8.8785  -8.8546  -8.8241  -8.8164  -8.8154  -8.8100
    -8.7926  -8.7882  -8.7861  -8.7250  -8.7145  -8.6427  -8.6362  -8.6316
    -8.4553  -8.4216  -8.2131  -8.1847  -8.1821  -8.0858  -8.0745  -7.9267
    -7.8562  -7.8208  -7.8013  -7.7854  -7.7036  -7.6874  -7.5738  -7.5088
    -7.4995  -7.4682  -7.4427  -7.4376  -7.4271  -7.3887  -7.3877  -7.3325
    -7.3268  -7.3205  -7.2918  -7.2681  -7.2152  -7.1682  -7.1646  -7.0337
    -7.0172  -6.9915  -6.8817  -6.7943  -6.6281  -6.5245  -6.2481  -6.1954
    -6.1752  -6.1430  -6.0811  -6.0658  -6.0559  -6.0494  -6.0445  -6.0418
    -6.0247  -6.0114  -5.9677  -5.9643  -5.8078  -5.8045  -5.7677  -5.6886
    -5.5178  -5.4378  -5.4256  -5.3997  -5.2542  -5.2021  -5.0828  -5.0212
    -4.7756  -4.7686  -4.7485  -4.7330  -4.6534  -4.6279  -4.5524  -4.4960
    -4.4829  -4.4725  -4.0639  -2.8322   0.0018   0.1770   0.6723   0.6793
     0.7066   0.7255   0.7333   0.7387   0.7843   0.7928   0.8054   0.8090
     0.8156   0.8339   0.8439   0.8515   0.8787   0.9021   0.9161   0.9500
     0.9671   1.1343   1.2262   1.2309   1.2538   1.2725   1.3147   1.3225
     1.3285   1.3339   1.3421   1.3637   1.3866   1.4353   1.4390   1.4423
     1.4513   1.4594   1.4813   1.8833   2.0907   2.0959   2.0972   2.1092
     2.1101   2.1268   2.1369   2.2787   2.3074

     highest occupied, lowest unoccupied level (ev):    -3.6450   -4.0639

!    total energy              =   -1940.17803367 Ry
     Harris-Foulkes estimate   =   -1940.17803414 Ry
     estimated scf accuracy    <       0.00000072 Ry

     total all-electron energy =     -7770.002510 Ry

     The total energy is the sum of the following terms:

     one-electron contribution =  -10644.67904284 Ry
     hartree contribution      =    5407.92923970 Ry
     xc contribution           =    -430.68521403 Ry
     ewald contribution        =    4370.70447703 Ry
     DFT-D3 Dispersion         =      -0.27014434 Ry
     one-center paw contrib.   =    -643.17734918 Ry

     total magnetization       =     1.00 Bohr mag/cell
     absolute magnetization    =     2.39 Bohr mag/cell

     convergence has been achieved in  14 iterations

     negative rho (up, down):  4.795E-01 7.843E-03

     Forces acting on atoms (cartesian axes, Ry/au):

     atom    1 type  1   force =    -0.00012806   -0.00032524    0.00000000
     atom    2 type  1   force =    -0.00032943   -0.00021207    0.00000000
     atom    3 type  1   force =    -0.00035791    0.00000693    0.00000000
     atom    4 type  1   force =    -0.00010239    0.00006590    0.00000000
     atom    5 type  1   force =     0.00036467   -0.00051969    0.00000000
     atom    6 type  1   force =     0.00015483   -0.00008665    0.00000000
     atom    7 type  1   force =    -0.00030795    0.00015362    0.00000000
     atom    8 type  1   force =    -0.00022347    0.00037278    0.00000000
     atom    9 type  1   force =    -0.00001412    0.00013542    0.00000000
     atom   10 type  1   force =    -0.00022613   -0.00020435    0.00000000
     atom   11 type  1   force =    -0.00012827   -0.00030791    0.00000000
     atom   12 type  1   force =     0.00057027   -0.00023522    0.00000000
     atom   13 type  1   force =     0.00049314   -0.00029369    0.00000000
     atom   14 type  1   force =     0.00014131   -0.00012560    0.00000000
     atom   15 type  1   force =     0.00002810    0.00010705    0.00000000
     atom   16 type  1   force =    -0.00014804    0.00009857    0.00000000
     atom   17 type  1   force =     0.00000595   -0.00033175    0.00000000
     atom   18 type  1   force =    -0.00016939   -0.00027737    0.00000000
     atom   19 type  1   force =     0.00008056   -0.00003975    0.00000000
     atom   20 type  1   force =     0.00049729   -0.00039273    0.00000000
     atom   21 type  1   force =     0.00062506   -0.00006907    0.00000000
     atom   22 type  1   force =     0.00036678   -0.00028264    0.00000000
     atom   23 type  1   force =    -0.00014045    0.00036331    0.00000000
     atom   24 type  1   force =    -0.00017222    0.00007168    0.00000000
     atom   25 type  4   force =     0.00020698   -0.00013607    0.00000000
     atom   26 type  1   force =     0.00016959    0.00027043    0.00000000
     atom   27 type  1   force =     0.00020704    0.00024015    0.00000000
     atom   28 type  1   force =    -0.00011096    0.00004507    0.00000000
     atom   29 type  1   force =     0.00000612    0.00012295    0.00000000
     atom   30 type  1   force =    -0.00002378   -0.00005305    0.00000000
     atom   31 type  1   force =    -0.00024217    0.00016062    0.00000000
     atom   32 type  1   force =    -0.00013998    0.00015530    0.00000000
     atom   33 type  1   force =     0.00028496    0.00011955    0.00000000
     atom   34 type  1   force =     0.00006186    0.00028714    0.00000000
     atom   35 type  1   force =    -0.00016751    0.00028761    0.00000000
     atom   36 type  1   force =    -0.00016141    0.00017824    0.00000000
     atom   37 type  1   force =     0.00000525    0.00000458    0.00000000
     atom   38 type  1   force =     0.00004216    0.00007219    0.00000000
     atom   39 type  1   force =    -0.00037970   -0.00003751    0.00000000
     atom   40 type  1   force =    -0.00013867    0.00009229    0.00000000
     atom   41 type  1   force =    -0.00008049   -0.00005343    0.00000000
     atom   42 type  1   force =     0.00005022    0.00038098    0.00000000
     atom   43 type  1   force =    -0.00006636    0.00003789    0.00000000
     atom   44 type  1   force =    -0.00023379    0.00007289    0.00000000
     atom   45 type  1   force =    -0.00009344   -0.00005568    0.00000000
     atom   46 type  1   force =     0.00042395   -0.00017491    0.00000000
     atom   47 type  1   force =    -0.00008544   -0.00007216    0.00000000
     atom   48 type  1   force =    -0.00044046   -0.00001410    0.00000000
     atom   49 type  1   force =     0.00021388    0.00024944    0.00000000
     atom   50 type  2   force =     0.00038295    0.00000886    0.00000000
     atom   51 type  2   force =     0.00016872   -0.00014085    0.00000000
     atom   52 type  2   force =    -0.00043060   -0.00031610    0.00000000
     atom   53 type  2   force =    -0.00020485    0.00004127    0.00000000
     atom   54 type  2   force =     0.00050444    0.00021325    0.00000000
     atom   55 type  2   force =     0.00015665    0.00003740    0.00000000
     atom   56 type  2   force =     0.00023759   -0.00011252    0.00000000
     atom   57 type  2   force =    -0.00008684   -0.00021823    0.00000000
     atom   58 type  2   force =    -0.00007440   -0.00036109    0.00000000
     atom   59 type  2   force =    -0.00031197   -0.00061647    0.00000000
     atom   60 type  2   force =    -0.00047952   -0.00007511    0.00000000
     atom   61 type  2   force =    -0.00029941   -0.00002937    0.00000000
     atom   62 type  2   force =     0.00015615   -0.00007775    0.00000000
     atom   63 type  2   force =     0.00005082   -0.00013140    0.00000000
     atom   64 type  2   force =    -0.00030572   -0.00016632    0.00000000
     atom   65 type  2   force =    -0.00026915   -0.00033794    0.00000000
     atom   66 type  2   force =     0.00001702   -0.00021815    0.00000000
     atom   67 type  3   force =    -0.00016498   -0.00048305    0.00000000
     atom   68 type  2   force =    -0.00037715    0.00025320    0.00000000
     atom   69 type  2   force =    -0.00010704    0.00029705    0.00000000
     atom   70 type  2   force =     0.00006952   -0.00054381    0.00000000
     atom   71 type  2   force =     0.00006249   -0.00040492    0.00000000
     atom   72 type  2   force =    -0.00038593   -0.00016349    0.00000000
     atom   73 type  2   force =    -0.00029762   -0.00013356    0.00000000
     atom   74 type  2   force =     0.00020985   -0.00014807    0.00000000
     atom   75 type  5   force =     0.00028247    0.00041496    0.00000000
     atom   76 type  2   force =    -0.00022501    0.00045563    0.00000000
     atom   77 type  2   force =    -0.00015494    0.00012289    0.00000000
     atom   78 type  2   force =    -0.00004970   -0.00028995    0.00000000
     atom   79 type  2   force =    -0.00024636    0.00011142    0.00000000
     atom   80 type  2   force =    -0.00014014    0.00007335    0.00000000
     atom   81 type  2   force =    -0.00003439    0.00026761    0.00000000
     atom   82 type  2   force =     0.00015024    0.00003045    0.00000000
     atom   83 type  2   force =     0.00031021    0.00058526    0.00000000
     atom   84 type  2   force =     0.00001895    0.00053151    0.00000000
     atom   85 type  2   force =    -0.00016392   -0.00026885    0.00000000
     atom   86 type  2   force =    -0.00010110    0.00005592    0.00000000
     atom   87 type  2   force =    -0.00021219    0.00015786    0.00000000
     atom   88 type  2   force =    -0.00002391    0.00037813    0.00000000
     atom   89 type  2   force =     0.00017597    0.00037415    0.00000000
     atom   90 type  2   force =     0.00029918    0.00026802    0.00000000
     atom   91 type  2   force =     0.00020150   -0.00001727    0.00000000
     atom   92 type  2   force =     0.00028622   -0.00013416    0.00000000
     atom   93 type  2   force =     0.00017530    0.00028627    0.00000000
     atom   94 type  2   force =     0.00023818    0.00019763    0.00000000
     atom   95 type  2   force =     0.00039263    0.00012583    0.00000000
     atom   96 type  2   force =     0.00001794    0.00033320    0.00000000
     atom   97 type  2   force =     0.00017925    0.00020661    0.00000000
     atom   98 type  2   force =     0.00021459   -0.00029125    0.00000000

     Total force =     0.003473     Total SCF correction =     0.001727
     SCF correction compared to forces is large: reduce conv_thr to get better values


     Computing stress (Cartesian axis) and pressure


     negative rho (up, down):  4.795E-01 7.843E-03
          total   stress  (Ry/bohr**3)                   (kbar)     P=   -0.13
   0.00000036   0.00000000   0.00000000          0.05      0.00      0.00
   0.00000000   0.00000036   0.00000000          0.00      0.05      0.00
   0.00000000   0.00000000  -0.00000345          0.00      0.00     -0.51


     BFGS Geometry Optimization

     number of scf cycles    =   1
     number of bfgs steps    =   0

     enthalpy new            =   -1940.1780336678 Ry

     new trust radius        =       0.0006909100 bohr
     new conv_thr            =       0.0000010000 Ry

     new unit-cell volume =  36232.78480 a.u.^3 (  5369.14469 Ang^3 )
     density =      0.36309 g/cm^3

CELL_PARAMETERS (alat= 33.23461096)
   1.000994521   0.000194875   0.000000000
  -0.500328494   0.866984223   0.000000000
   0.000000000   0.000000000   1.137203616

ATOMIC_POSITIONS (crystal)
B        0.047267385   0.094712326   0.500000000
B        0.047378369   0.237825316   0.500000000
B        0.047337743   0.380930197   0.500000000
B        0.047195468   0.523769953   0.500000000
B        0.047619635   0.666666853   0.500000000
B        0.047881414   0.809662912   0.500000000
B        0.047670691   0.952328102   0.500000000
B        0.189886445   0.094335946   0.500000000
B        0.189230610   0.236516945   0.500000000
B        0.190144769   0.380826165   0.500000000
B        0.189517726   0.523785203   0.500000000
B        0.189630809   0.666827376   0.500000000
B        0.190321930   0.809677660   0.500000000
B        0.190336192   0.952117429   0.500000000
B        0.333197420   0.094306895   0.500000000
B        0.332616644   0.235953769   0.500000000
B        0.331405191   0.377168480   0.500000000
B        0.332400985   0.525300525   0.500000000
B        0.331905848   0.668094517   0.500000000
B        0.333172621   0.810368676   0.500000000
B        0.333332718   0.952379951   0.500000000
B        0.476264017   0.095124802   0.500000000
B        0.476066132   0.237638160   0.500000000
B        0.474801922   0.379470958   0.500000000
C2       0.477600803   0.522398331   0.500000000
B        0.474699637   0.667598490   0.500000000
B        0.476214514   0.810481459   0.500000000
B        0.476229788   0.952804211   0.500000000
B        0.618989817   0.095254147   0.500000000
B        0.619040842   0.237969556   0.500000000
B        0.619096661   0.380904393   0.500000000
B        0.620530016   0.525199529   0.500000000
B        0.622830658   0.668593375   0.500000000
B        0.619173608   0.809854888   0.500000000
B        0.619070003   0.952661627   0.500000000
B        0.761867738   0.095273730   0.500000000
B        0.761866625   0.238133717   0.500000000
B        0.762031076   0.380959985   0.500000000
B        0.762362351   0.523934626   0.500000000
B        0.764047052   0.667383787   0.500000000
B        0.763484416   0.810769463   0.500000000
B        0.762175445   0.952621289   0.500000000
B        0.904822938   0.095177018   0.500000000
B        0.904726666   0.238132998   0.500000000
B        0.904746317   0.381010534   0.500000000
B        0.904875063   0.523736003   0.500000000
B        0.905692973   0.666802762   0.500000000
B        0.905663504   0.810112828   0.500000000
B        0.905287145   0.952731799   0.500000000
N        0.094945025   0.047218673   0.500000000
N        0.094453997   0.189651484   0.500000000
N        0.094954024   0.333189234   0.500000000
N        0.094556337   0.476076921   0.500000000
N        0.094686104   0.618939119   0.500000000
N        0.095232788   0.761929616   0.500000000
N        0.095281222   0.904720015   0.500000000
N        0.237943975   0.047103122   0.500000000
N        0.237278699   0.189181044   0.500000000
N        0.236586728   0.331485780   0.500000000
N        0.237134249   0.476328816   0.500000000
N        0.236756985   0.619293366   0.500000000
N        0.237812205   0.762188393   0.500000000
N        0.238070862   0.904767956   0.500000000
N        0.381110639   0.047365459   0.500000000
N        0.380953777   0.189259798   0.500000000
N        0.379919405   0.330191419   0.500000000
C1       0.382839794   0.475945322   0.500000000
N        0.378881868   0.621119959   0.500000000
N        0.380707539   0.763243780   0.500000000
N        0.381060885   0.905313823   0.500000000
N        0.523929659   0.047844214   0.500000000
N        0.523919446   0.190470799   0.500000000
N        0.523662000   0.333482067   0.500000000
N        0.523109341   0.476889223   0.500000000
C3       0.524053594   0.617161258   0.500000000
N        0.523669729   0.762865837   0.500000000
N        0.523921985   0.905442446   0.500000000
N        0.666688297   0.047803250   0.500000000
N        0.666648488   0.190530996   0.500000000
N        0.666579562   0.333420074   0.500000000
N        0.666516913   0.476335994   0.500000000
N        0.669806073   0.620078375   0.500000000
N        0.668512317   0.763413514   0.500000000
N        0.666809616   0.905045976   0.500000000
N        0.809588398   0.047737060   0.500000000
N        0.809472719   0.190527223   0.500000000
N        0.809469305   0.333351574   0.500000000
N        0.809529435   0.476079253   0.500000000
N        0.810740327   0.619045259   0.500000000
N        0.810820105   0.762722094   0.500000000
N        0.810349400   0.905548008   0.500000000
N        0.952394572   0.047607056   0.500000000
N        0.952263867   0.190411984   0.500000000
N        0.952197288   0.333312088   0.500000000
N        0.952155727   0.476069572   0.500000000
N        0.952635093   0.618888805   0.500000000
N        0.952898273   0.762056752   0.500000000
N        0.952783023   0.905056499   0.500000000



     Writing output data file C2Cn.save/
     NEW-OLD atomic charge density approx. for the potential
     NEW k-points:
   0.0000000   0.0000000   0.0000000   1.0000000
   0.0000000   0.0000000   0.0000000   1.0000000

     Check: negative core charge=   -0.000006

     negative rho (up, down):  4.795E-01 3.992E-03
     extrapolated charge  391.00706, renormalised to  391.00000

     total cpu time spent up to now is      536.3 secs

     Self-consistent Calculation

     iteration #  1     ecut=    40.00 Ry     beta= 0.70
     CG style diagonalization
     ethr =  1.00E-06,  avg # of iterations =  2.0

     Threshold (ethr) on eigenvalues was too large:
     Diagonalizing with lowered threshold

     CG style diagonalization
     ethr =  7.07E-10,  avg # of iterations = 19.9

     negative rho (up, down):  4.795E-01 7.205E-03

     total cpu time spent up to now is      764.8 secs

     total energy              =   -1940.17803675 Ry
     Harris-Foulkes estimate   =   -1939.99179307 Ry
     estimated scf accuracy    <       0.00000859 Ry

     total magnetization       =     1.00 Bohr mag/cell
     absolute magnetization    =     2.39 Bohr mag/cell

     iteration #  2     ecut=    40.00 Ry     beta= 0.70
     CG style diagonalization
     ethr =  2.20E-09,  avg # of iterations =  4.0

     negative rho (up, down):  4.795E-01 7.367E-03

     total cpu time spent up to now is      800.2 secs

     total energy              =   -1940.17803797 Ry
     Harris-Foulkes estimate   =   -1940.17804555 Ry
     estimated scf accuracy    <       0.00001614 Ry

     total magnetization       =     1.00 Bohr mag/cell
     absolute magnetization    =     2.39 Bohr mag/cell

     iteration #  3     ecut=    40.00 Ry     beta= 0.70
     CG style diagonalization
     ethr =  2.20E-09,  avg # of iterations =  3.5

     negative rho (up, down):  4.796E-01 7.810E-03
 
     Magnetic moment per site:
     atom:    1    charge:    0.8514    magn:   -0.0002    constr:    0.0000
     atom:    2    charge:    0.8464    magn:   -0.0005    constr:    0.0000
     atom:    3    charge:    0.8476    magn:   -0.0004    constr:    0.0000
     atom:    4    charge:    0.8494    magn:    0.0002    constr:    0.0000
     atom:    5    charge:    0.8524    magn:   -0.0010    constr:    0.0000
     atom:    6    charge:    0.8509    magn:    0.0002    constr:    0.0000
     atom:    7    charge:    0.8519    magn:   -0.0009    constr:    0.0000
     atom:    8    charge:    0.8508    magn:   -0.0008    constr:    0.0000
     atom:    9    charge:    0.8516    magn:   -0.0011    constr:    0.0000
     atom:   10    charge:    0.8436    magn:   -0.0037    constr:    0.0000
     atom:   11    charge:    0.8474    magn:   -0.0002    constr:    0.0000
     atom:   12    charge:    0.8530    magn:   -0.0015    constr:    0.0000
     atom:   13    charge:    0.8525    magn:    0.0002    constr:    0.0000
     atom:   14    charge:    0.8509    magn:    0.0002    constr:    0.0000
     atom:   15    charge:    0.8509    magn:   -0.0006    constr:    0.0000
     atom:   16    charge:    0.8564    magn:   -0.0061    constr:    0.0000
     atom:   17    charge:    0.8630    magn:   -0.0131    constr:    0.0000
     atom:   18    charge:    0.8511    magn:   -0.0104    constr:    0.0000
     atom:   19    charge:    0.8604    magn:   -0.0101    constr:    0.0000
     atom:   20    charge:    0.8530    magn:   -0.0015    constr:    0.0000
     atom:   21    charge:    0.8524    magn:   -0.0010    constr:    0.0000
     atom:   22    charge:    0.8474    magn:    0.0000    constr:    0.0000
     atom:   23    charge:    0.8442    magn:   -0.0005    constr:    0.0000
     atom:   24    charge:    0.8407    magn:   -0.0091    constr:    0.0000
     atom:   25    charge:    1.5849    magn:   -0.1485    constr:    0.0000
     atom:   26    charge:    0.8510    magn:   -0.0104    constr:    0.0000
     atom:   27    charge:    0.8474    magn:   -0.0002    constr:    0.0000
     atom:   28    charge:    0.8495    magn:    0.0002    constr:    0.0000
     atom:   29    charge:    0.8475    magn:   -0.0008    constr:    0.0000
     atom:   30    charge:    0.8479    magn:   -0.0000    constr:    0.0000
     atom:   31    charge:    0.8469    magn:   -0.0025    constr:    0.0000
     atom:   32    charge:    0.8407    magn:   -0.0092    constr:    0.0000
     atom:   33    charge:    0.8630    magn:   -0.0131    constr:    0.0000
     atom:   34    charge:    0.8436    magn:   -0.0036    constr:    0.0000
     atom:   35    charge:    0.8476    magn:   -0.0004    constr:    0.0000
     atom:   36    charge:    0.8466    magn:    0.0004    constr:    0.0000
     atom:   37    charge:    0.8461    magn:    0.0004    constr:    0.0000
     atom:   38    charge:    0.8479    magn:   -0.0000    constr:    0.0000
     atom:   39    charge:    0.8442    magn:   -0.0005    constr:    0.0000
     atom:   40    charge:    0.8565    magn:   -0.0061    constr:    0.0000
     atom:   41    charge:    0.8516    magn:   -0.0011    constr:    0.0000
     atom:   42    charge:    0.8465    magn:   -0.0005    constr:    0.0000
     atom:   43    charge:    0.8465    magn:   -0.0011    constr:    0.0000
     atom:   44    charge:    0.8465    magn:    0.0004    constr:    0.0000
     atom:   45    charge:    0.8474    magn:   -0.0008    constr:    0.0000
     atom:   46    charge:    0.8474    magn:    0.0000    constr:    0.0000
     atom:   47    charge:    0.8509    magn:   -0.0006    constr:    0.0000
     atom:   48    charge:    0.8508    magn:   -0.0008    constr:    0.0000
     atom:   49    charge:    0.8514    magn:   -0.0001    constr:    0.0000
     atom:   50    charge:    2.6489    magn:    0.0013    constr:    0.0000
     atom:   51    charge:    2.6494    magn:    0.0005    constr:    0.0000
     atom:   52    charge:    2.6366    magn:    0.0085    constr:    0.0000
     atom:   53    charge:    2.6481    magn:    0.0029    constr:    0.0000
     atom:   54    charge:    2.6499    magn:    0.0007    constr:    0.0000
     atom:   55    charge:    2.6403    magn:   -0.0001    constr:    0.0000
     atom:   56    charge:    2.6440    magn:   -0.0003    constr:    0.0000
     atom:   57    charge:    2.6458    magn:   -0.0018    constr:    0.0000
     atom:   58    charge:    2.6455    magn:    0.0060    constr:    0.0000
     atom:   59    charge:    2.6362    magn:    0.0307    constr:    0.0000
     atom:   60    charge:    2.6381    magn:    0.0147    constr:    0.0000
     atom:   61    charge:    2.6449    magn:    0.0100    constr:    0.0000
     atom:   62    charge:    2.6398    magn:    0.0026    constr:    0.0000
     atom:   63    charge:    2.6403    magn:   -0.0001    constr:    0.0000
     atom:   64    charge:    2.6484    magn:    0.0009    constr:    0.0000
     atom:   65    charge:    2.6477    magn:    0.0038    constr:    0.0000
     atom:   66    charge:    2.6477    magn:    0.0076    constr:    0.0000
     atom:   67    charge:    1.7436    magn:    0.1731    constr:    0.0000
     atom:   68    charge:    2.6359    magn:    0.0535    constr:    0.0000
     atom:   69    charge:    2.6449    magn:    0.0100    constr:    0.0000
     atom:   70    charge:    2.6498    magn:    0.0007    constr:    0.0000
     atom:   71    charge:    2.6487    magn:    0.0003    constr:    0.0000
     atom:   72    charge:    2.6435    magn:    0.0003    constr:    0.0000
     atom:   73    charge:    2.6380    magn:    0.0153    constr:    0.0000
     atom:   74    charge:    2.6070    magn:    0.1182    constr:    0.0000
     atom:   75    charge:    1.7435    magn:    0.1731    constr:    0.0000
     atom:   76    charge:    2.6381    magn:    0.0147    constr:    0.0000
     atom:   77    charge:    2.6481    magn:    0.0029    constr:    0.0000
     atom:   78    charge:    2.6463    magn:    0.0006    constr:    0.0000
     atom:   79    charge:    2.6431    magn:    0.0005    constr:    0.0000
     atom:   80    charge:    2.6345    magn:    0.0068    constr:    0.0000
     atom:   81    charge:    2.6380    magn:    0.0154    constr:    0.0000
     atom:   82    charge:    2.6478    magn:    0.0075    constr:    0.0000
     atom:   83    charge:    2.6364    magn:    0.0306    constr:    0.0000
     atom:   84    charge:    2.6366    magn:    0.0084    constr:    0.0000
     atom:   85    charge:    2.6454    magn:    0.0012    constr:    0.0000
     atom:   86    charge:    2.6442    magn:   -0.0001    constr:    0.0000
     atom:   87    charge:    2.6431    magn:    0.0005    constr:    0.0000
     atom:   88    charge:    2.6435    magn:    0.0003    constr:    0.0000
     atom:   89    charge:    2.6477    magn:    0.0038    constr:    0.0000
     atom:   90    charge:    2.6456    magn:    0.0060    constr:    0.0000
     atom:   91    charge:    2.6494    magn:    0.0005    constr:    0.0000
     atom:   92    charge:    2.6494    magn:    0.0003    constr:    0.0000
     atom:   93    charge:    2.6454    magn:    0.0012    constr:    0.0000
     atom:   94    charge:    2.6464    magn:    0.0006    constr:    0.0000
     atom:   95    charge:    2.6487    magn:    0.0003    constr:    0.0000
     atom:   96    charge:    2.6484    magn:    0.0009    constr:    0.0000
     atom:   97    charge:    2.6458    magn:   -0.0018    constr:    0.0000
     atom:   98    charge:    2.6489    magn:    0.0013    constr:    0.0000

     total cpu time spent up to now is      830.4 secs

     End of self-consistent calculation

 ------ SPIN UP ------------


          k = 0.0000 0.0000 0.0000 ( 77463 PWs)   bands (ev):

   -21.9145 -21.6561 -21.3933 -21.3857 -21.3569 -21.3000 -21.2836 -20.8968
   -20.6625 -20.6444 -20.6210 -20.5449 -20.5395 -20.4235 -20.2912 -20.2876
   -20.2697 -20.1296 -20.1148 -19.6023 -19.4267 -19.4062 -19.3910 -19.3885
   -19.3815 -19.3673 -19.3619 -19.3179 -19.3124 -19.1681 -19.1598 -19.0384
   -18.9690 -18.9659 -18.9368 -18.7766 -18.7655 -18.5556 -18.5419 -18.5243
   -18.5220 -18.4663 -18.4201 -18.3934 -18.3590 -18.3379 -18.3279 -16.8695
   -15.0396 -13.1851 -12.7784 -12.7776 -12.7434 -12.7137 -12.7083 -12.6425
   -12.5595 -12.5212 -12.5146 -12.4888 -12.4066 -12.1530 -12.0618 -12.0526
   -12.0227 -11.9935 -11.9405 -11.5720 -11.4299 -11.4132 -11.3925 -11.3876
   -11.3609 -11.3572 -11.3529 -11.3128 -11.3009 -11.1081 -11.0439 -10.8720
   -10.7177 -10.7018 -10.6754 -10.6507 -10.4998 -10.0817 -10.0306 -10.0103
    -9.9363  -9.8856  -9.8171  -9.4123  -9.3400  -9.3263  -9.3103  -9.2916
    -9.2739  -9.2189  -9.0719  -8.9641  -8.9639  -8.9132  -8.9079  -8.8955
    -8.8929  -8.8848  -8.8841  -8.8579  -8.8265  -8.8243  -8.8174  -8.8165
    -8.7939  -8.7929  -8.7908  -8.7466  -8.7351  -8.7019  -8.6575  -8.6434
    -8.4656  -8.4576  -8.2146  -8.1881  -8.1846  -8.1058  -8.0852  -7.9827
    -7.8759  -7.8330  -7.8192  -7.7936  -7.7222  -7.7216  -7.5815  -7.5195
    -7.5027  -7.4705  -7.4610  -7.4446  -7.4281  -7.3914  -7.3902  -7.3377
    -7.3371  -7.3359  -7.3226  -7.2828  -7.2316  -7.2307  -7.2017  -7.0376
    -7.0354  -6.9931  -6.9086  -6.8250  -6.6559  -6.5539  -6.2946  -6.2005
    -6.1877  -6.1463  -6.0988  -6.0778  -6.0742  -6.0649  -6.0593  -6.0561
    -6.0359  -6.0308  -6.0085  -5.9856  -5.8867  -5.8310  -5.8078  -5.7192
    -5.5425  -5.4502  -5.4377  -5.4343  -5.3521  -5.2746  -5.1624  -5.1109
    -4.8072  -4.8046  -4.7765  -4.7606  -4.6963  -4.6756  -4.5799  -4.5173
    -4.4936  -4.4930  -4.4605  -3.6469   0.1843   0.2779   0.6819   0.7016
     0.7135   0.7283   0.7374   0.7423   0.7885   0.8069   0.8082   0.8110
     0.8183   0.8400   0.8527   0.8613   0.8904   0.9164   0.9274   0.9473
     0.9983   1.1487   1.2141   1.2483   1.2649   1.2935   1.3043   1.3184
     1.3252   1.3312   1.3476   1.3629   1.4089   1.4350   1.4384   1.4421
     1.4517   1.4599   1.4837   1.8872   2.0990   2.1014   2.1057   2.1146
     2.1202   2.1403   2.1471   2.2108   2.2626

 ------ SPIN DOWN ----------


          k = 0.0000 0.0000 0.0000 ( 77463 PWs)   bands (ev):

   -21.8493 -21.6314 -21.3907 -21.3817 -21.3539 -21.2886 -21.2636 -20.8724
   -20.6545 -20.6331 -20.6148 -20.5383 -20.5302 -20.4170 -20.2836 -20.2783
   -20.2501 -20.1078 -20.1016 -19.5783 -19.4159 -19.3988 -19.3863 -19.3817
   -19.3722 -19.3619 -19.3483 -19.3019 -19.2975 -19.1534 -19.1484 -19.0280
   -18.9603 -18.9584 -18.9154 -18.7617 -18.7477 -18.5426 -18.5323 -18.5111
   -18.5070 -18.4582 -18.3999 -18.3858 -18.3479 -18.3306 -18.3093 -16.6364
   -14.6813 -13.1783 -12.7772 -12.7753 -12.7423 -12.7127 -12.7081 -12.6429
   -12.5578 -12.5203 -12.5119 -12.4740 -12.4056 -12.1484 -12.0612 -12.0487
   -12.0156 -11.9836 -11.9338 -11.5652 -11.4226 -11.4120 -11.3908 -11.3845
   -11.3597 -11.3552 -11.3492 -11.3043 -11.2905 -11.0600 -11.0275 -10.8761
   -10.7168 -10.7019 -10.6705 -10.6450 -10.4964 -10.0755 -10.0277 -10.0019
    -9.9249  -9.8628  -9.8019  -9.4079  -9.3193  -9.3145  -9.3056  -9.2859
    -9.2722  -9.2143  -9.0666  -8.9507  -8.9096  -8.9073  -8.9042  -8.8921
    -8.8915  -8.8824  -8.8796  -8.8554  -8.8241  -8.8181  -8.8153  -8.8103
    -8.7926  -8.7878  -8.7868  -8.7260  -8.7154  -8.6435  -8.6364  -8.6320
    -8.4560  -8.4218  -8.2126  -8.1848  -8.1823  -8.0868  -8.0755  -7.9272
    -7.8575  -7.8213  -7.8019  -7.7860  -7.7035  -7.6875  -7.5743  -7.5100
    -7.5005  -7.4690  -7.4435  -7.4383  -7.4277  -7.3887  -7.3874  -7.3326
    -7.3276  -7.3208  -7.2920  -7.2695  -7.2156  -7.1684  -7.1650  -7.0334
    -7.0167  -6.9910  -6.8829  -6.7965  -6.6293  -6.5252  -6.2487  -6.1959
    -6.1768  -6.1431  -6.0815  -6.0662  -6.0555  -6.0504  -6.0452  -6.0427
    -6.0253  -6.0119  -5.9681  -5.9642  -5.8079  -5.8043  -5.7678  -5.6893
    -5.5188  -5.4383  -5.4258  -5.3995  -5.2548  -5.2029  -5.0852  -5.0237
    -4.7763  -4.7691  -4.7485  -4.7342  -4.6541  -4.6284  -4.5539  -4.4967
    -4.4819  -4.4714  -4.0654  -2.8342  -0.0010   0.1772   0.6708   0.6782
     0.7069   0.7248   0.7321   0.7390   0.7840   0.7928   0.8056   0.8092
     0.8157   0.8343   0.8429   0.8515   0.8780   0.9025   0.9174   0.9506
     0.9665   1.1330   1.2262   1.2294   1.2539   1.2715   1.3148   1.3228
     1.3286   1.3341   1.3426   1.3639   1.3873   1.4352   1.4391   1.4423
     1.4515   1.4594   1.4814   1.8833   2.0907   2.0958   2.0961   2.1093
     2.1101   2.1271   2.1372   2.2772   2.3067

     highest occupied, lowest unoccupied level (ev):    -3.6469   -4.0654

!    total energy              =   -1940.17803962 Ry
     Harris-Foulkes estimate   =   -1940.17804134 Ry
     estimated scf accuracy    <       0.00000086 Ry

     total all-electron energy =     -7770.002516 Ry

     The total energy is the sum of the following terms:

     one-electron contribution =  -10644.51157015 Ry
     hartree contribution      =    5407.85603214 Ry
     xc contribution           =    -430.68640917 Ry
     ewald contribution        =    4370.61147761 Ry
     DFT-D3 Dispersion         =      -0.27014088 Ry
     one-center paw contrib.   =    -643.17742917 Ry

     total magnetization       =     1.00 Bohr mag/cell
     absolute magnetization    =     2.39 Bohr mag/cell

     convergence has been achieved in   3 iterations

     negative rho (up, down):  4.796E-01 7.810E-03

     Forces acting on atoms (cartesian axes, Ry/au):

     atom    1 type  1   force =     0.00037745   -0.00001043    0.00000000
     atom    2 type  1   force =     0.00023995   -0.00013370    0.00000000
     atom    3 type  1   force =     0.00001325    0.00012926    0.00000000
     atom    4 type  1   force =     0.00023654    0.00029847    0.00000000
     atom    5 type  1   force =     0.00024105    0.00018225    0.00000000
     atom    6 type  1   force =     0.00024596    0.00003218    0.00000000
     atom    7 type  1   force =     0.00038492   -0.00014737    0.00000000
     atom    8 type  1   force =     0.00021996   -0.00023364    0.00000000
     atom    9 type  1   force =    -0.00004890   -0.00046583    0.00000000
     atom   10 type  1   force =    -0.00037882   -0.00031398    0.00000000
     atom   11 type  1   force =    -0.00032670    0.00000997    0.00000000
     atom   12 type  1   force =     0.00011805    0.00016170    0.00000000
     atom   13 type  1   force =     0.00011609   -0.00003637    0.00000000
     atom   14 type  1   force =     0.00012848   -0.00012929    0.00000000
     atom   15 type  1   force =    -0.00026167   -0.00030778    0.00000000
     atom   16 type  1   force =    -0.00011641   -0.00039231    0.00000000
     atom   17 type  1   force =    -0.00019991   -0.00044248    0.00000000
     atom   18 type  1   force =    -0.00023669   -0.00012544    0.00000000
     atom   19 type  1   force =    -0.00035477    0.00021125    0.00000000
     atom   20 type  1   force =    -0.00008472   -0.00015019    0.00000000
     atom   21 type  1   force =    -0.00002840   -0.00025992    0.00000000
     atom   22 type  1   force =    -0.00025952   -0.00024566    0.00000000
     atom   23 type  1   force =    -0.00036116   -0.00021665    0.00000000
     atom   24 type  1   force =    -0.00012146   -0.00006554    0.00000000
     atom   25 type  4   force =     0.00001333    0.00002833    0.00000000
     atom   26 type  1   force =    -0.00005224    0.00031641    0.00000000
     atom   27 type  1   force =    -0.00019532    0.00031861    0.00000000
     atom   28 type  1   force =    -0.00014025   -0.00034876    0.00000000
     atom   29 type  1   force =    -0.00007245   -0.00011055    0.00000000
     atom   30 type  1   force =    -0.00040772   -0.00000119    0.00000000
     atom   31 type  1   force =    -0.00019981    0.00004440    0.00000000
     atom   32 type  1   force =    -0.00003366    0.00000318    0.00000000
     atom   33 type  1   force =     0.00025761    0.00045392    0.00000000
     atom   34 type  1   force =     0.00004708    0.00048004    0.00000000
     atom   35 type  1   force =    -0.00018054   -0.00005495    0.00000000
     atom   36 type  1   force =    -0.00012923   -0.00012651    0.00000000
     atom   37 type  1   force =    -0.00020425    0.00011164    0.00000000
     atom   38 type  1   force =    -0.00020771    0.00028408    0.00000000
[...]
     atom:   57    charge:    2.6455    magn:   -0.0018    constr:    0.0000
     atom:   58    charge:    2.6455    magn:    0.0060    constr:    0.0000
     atom:   59    charge:    2.6363    magn:    0.0305    constr:    0.0000
     atom:   60    charge:    2.6378    magn:    0.0147    constr:    0.0000
     atom:   61    charge:    2.6449    magn:    0.0100    constr:    0.0000
     atom:   62    charge:    2.6403    magn:    0.0026    constr:    0.0000
     atom:   63    charge:    2.6403    magn:   -0.0001    constr:    0.0000
     atom:   64    charge:    2.6482    magn:    0.0009    constr:    0.0000
     atom:   65    charge:    2.6474    magn:    0.0038    constr:    0.0000
     atom:   66    charge:    2.6475    magn:    0.0075    constr:    0.0000
     atom:   67    charge:    1.7432    magn:    0.1732    constr:    0.0000
     atom:   68    charge:    2.6359    magn:    0.0535    constr:    0.0000
     atom:   69    charge:    2.6449    magn:    0.0100    constr:    0.0000
     atom:   70    charge:    2.6499    magn:    0.0007    constr:    0.0000
     atom:   71    charge:    2.6485    magn:    0.0003    constr:    0.0000
     atom:   72    charge:    2.6434    magn:    0.0003    constr:    0.0000
     atom:   73    charge:    2.6377    magn:    0.0154    constr:    0.0000
     atom:   74    charge:    2.6066    magn:    0.1182    constr:    0.0000
     atom:   75    charge:    1.7432    magn:    0.1732    constr:    0.0000
     atom:   76    charge:    2.6378    magn:    0.0147    constr:    0.0000
     atom:   77    charge:    2.6481    magn:    0.0028    constr:    0.0000
     atom:   78    charge:    2.6463    magn:    0.0006    constr:    0.0000
     atom:   79    charge:    2.6426    magn:    0.0005    constr:    0.0000
     atom:   80    charge:    2.6343    magn:    0.0068    constr:    0.0000
     atom:   81    charge:    2.6377    magn:    0.0154    constr:    0.0000
     atom:   82    charge:    2.6476    magn:    0.0075    constr:    0.0000
     atom:   83    charge:    2.6363    magn:    0.0305    constr:    0.0000
     atom:   84    charge:    2.6369    magn:    0.0084    constr:    0.0000
     atom:   85    charge:    2.6454    magn:    0.0012    constr:    0.0000
     atom:   86    charge:    2.6441    magn:   -0.0001    constr:    0.0000
     atom:   87    charge:    2.6426    magn:    0.0005    constr:    0.0000
     atom:   88    charge:    2.6434    magn:    0.0003    constr:    0.0000
     atom:   89    charge:    2.6474    magn:    0.0038    constr:    0.0000
     atom:   90    charge:    2.6455    magn:    0.0060    constr:    0.0000
     atom:   91    charge:    2.6495    magn:    0.0005    constr:    0.0000
     atom:   92    charge:    2.6494    magn:    0.0003    constr:    0.0000
     atom:   93    charge:    2.6454    magn:    0.0012    constr:    0.0000
     atom:   94    charge:    2.6463    magn:    0.0006    constr:    0.0000
     atom:   95    charge:    2.6485    magn:    0.0003    constr:    0.0000
     atom:   96    charge:    2.6482    magn:    0.0009    constr:    0.0000
     atom:   97    charge:    2.6455    magn:   -0.0018    constr:    0.0000
     atom:   98    charge:    2.6488    magn:    0.0013    constr:    0.0000

     total cpu time spent up to now is     3512.0 secs

     End of self-consistent calculation

 ------ SPIN UP ------------


          k = 0.0000 0.0000 0.0000 ( 77475 PWs)   bands (ev):

   -21.9107 -21.6552 -21.3927 -21.3844 -21.3573 -21.2991 -21.2828 -20.8953
   -20.6620 -20.6433 -20.6202 -20.5442 -20.5387 -20.4230 -20.2906 -20.2869
   -20.2688 -20.1286 -20.1134 -19.6009 -19.4260 -19.4051 -19.3906 -19.3881
   -19.3803 -19.3664 -19.3617 -19.3171 -19.3115 -19.1676 -19.1592 -19.0376
   -18.9683 -18.9653 -18.9365 -18.7751 -18.7656 -18.5550 -18.5414 -18.5236
   -18.5213 -18.4661 -18.4201 -18.3925 -18.3585 -18.3383 -18.3284 -16.8636
   -15.0378 -13.1822 -12.7774 -12.7765 -12.7425 -12.7131 -12.7075 -12.6424
   -12.5592 -12.5211 -12.5145 -12.4881 -12.4060 -12.1529 -12.0606 -12.0524
   -12.0216 -11.9923 -11.9396 -11.5709 -11.4292 -11.4119 -11.3922 -11.3871
   -11.3613 -11.3570 -11.3528 -11.3119 -11.3002 -11.1070 -11.0428 -10.8712
   -10.7174 -10.7017 -10.6744 -10.6499 -10.4989 -10.0811 -10.0303 -10.0100
    -9.9354  -9.8849  -9.8165  -9.4106  -9.3386  -9.3262  -9.3100  -9.2907
    -9.2735  -9.2191  -9.0715  -8.9639  -8.9622  -8.9129  -8.9084  -8.8960
    -8.8921  -8.8842  -8.8837  -8.8573  -8.8261  -8.8233  -8.8165  -8.8163
    -8.7936  -8.7935  -8.7903  -8.7458  -8.7336  -8.7009  -8.6569  -8.6424
    -8.4653  -8.4570  -8.2141  -8.1881  -8.1850  -8.1050  -8.0854  -7.9815
    -7.8750  -7.8326  -7.8184  -7.7930  -7.7214  -7.7209  -7.5802  -7.5196
    -7.5019  -7.4707  -7.4606  -7.4450  -7.4266  -7.3918  -7.3892  -7.3372
    -7.3366  -7.3354  -7.3219  -7.2823  -7.2329  -7.2300  -7.2007  -7.0378
    -7.0353  -6.9938  -6.9078  -6.8236  -6.6559  -6.5534  -6.2936  -6.2004
    -6.1872  -6.1464  -6.0983  -6.0770  -6.0743  -6.0638  -6.0590  -6.0555
    -6.0352  -6.0310  -6.0081  -5.9852  -5.8862  -5.8309  -5.8073  -5.7187
    -5.5418  -5.4498  -5.4375  -5.4339  -5.3517  -5.2738  -5.1585  -5.1113
    -4.8068  -4.8042  -4.7760  -4.7600  -4.6957  -4.6754  -4.5791  -4.5167
    -4.4943  -4.4938  -4.4592  -3.6470   0.1845   0.2777   0.6817   0.7013
     0.7136   0.7283   0.7375   0.7422   0.7888   0.8068   0.8082   0.8109
     0.8182   0.8398   0.8529   0.8615   0.8906   0.9155   0.9283   0.9466
     0.9982   1.1489   1.2136   1.2484   1.2647   1.2938   1.3038   1.3185
     1.3253   1.3310   1.3477   1.3630   1.4097   1.4350   1.4382   1.4421
     1.4517   1.4600   1.4840   1.8880   2.1030   2.1052   2.2731   2.3019
     2.3095   2.3322   2.3372   2.3393   2.3880

 ------ SPIN DOWN ----------


          k = 0.0000 0.0000 0.0000 ( 77475 PWs)   bands (ev):

   -21.8459 -21.6303 -21.3901 -21.3804 -21.3543 -21.2879 -21.2627 -20.8710
   -20.6540 -20.6321 -20.6141 -20.5377 -20.5295 -20.4165 -20.2830 -20.2777
   -20.2492 -20.1067 -20.1003 -19.5769 -19.4152 -19.3979 -19.3859 -19.3813
   -19.3715 -19.3611 -19.3476 -19.3011 -19.2968 -19.1529 -19.1478 -19.0273
   -18.9596 -18.9579 -18.9151 -18.7602 -18.7478 -18.5420 -18.5317 -18.5105
   -18.5063 -18.4580 -18.4001 -18.3849 -18.3477 -18.3307 -18.3096 -16.6302
   -14.6790 -13.1754 -12.7761 -12.7743 -12.7415 -12.7121 -12.7073 -12.6428
   -12.5575 -12.5201 -12.5118 -12.4733 -12.4049 -12.1483 -12.0600 -12.0485
   -12.0148 -11.9823 -11.9329 -11.5641 -11.4218 -11.4107 -11.3905 -11.3839
   -11.3601 -11.3550 -11.3492 -11.3034 -11.2897 -11.0589 -11.0264 -10.8753
   -10.7166 -10.7017 -10.6694 -10.6442 -10.4955 -10.0749 -10.0275 -10.0016
    -9.9240  -9.8622  -9.8013  -9.4062  -9.3192  -9.3133  -9.3054  -9.2850
    -9.2718  -9.2145  -9.0662  -8.9505  -8.9092  -8.9054  -8.9047  -8.8919
    -8.8913  -8.8822  -8.8792  -8.8548  -8.8238  -8.8169  -8.8152  -8.8094
    -8.7923  -8.7885  -8.7863  -8.7253  -8.7138  -8.6429  -8.6351  -8.6309
    -8.4557  -8.4213  -8.2121  -8.1850  -8.1827  -8.0858  -8.0757  -7.9260
    -7.8567  -7.8211  -7.8011  -7.7855  -7.7030  -7.6867  -7.5730  -7.5099
    -7.4997  -7.4692  -7.4440  -7.4379  -7.4262  -7.3890  -7.3865  -7.3321
    -7.3271  -7.3204  -7.2914  -7.2691  -7.2168  -7.1676  -7.1640  -7.0333
    -7.0171  -6.9917  -6.8818  -6.7952  -6.6294  -6.5247  -6.2477  -6.1959
    -6.1762  -6.1433  -6.0812  -6.0657  -6.0557  -6.0501  -6.0449  -6.0419
    -6.0247  -6.0119  -5.9677  -5.9638  -5.8074  -5.8044  -5.7673  -5.6888
    -5.5183  -5.4379  -5.4255  -5.3994  -5.2547  -5.2021  -5.0808  -5.0242
    -4.7760  -4.7688  -4.7481  -4.7339  -4.6539  -4.6284  -4.5532  -4.4964
    -4.4823  -4.4720  -4.0625  -2.8337  -0.0014   0.1771   0.6705   0.6781
     0.7066   0.7247   0.7321   0.7389   0.7842   0.7928   0.8054   0.8091
     0.8156   0.8339   0.8431   0.8513   0.8782   0.9021   0.9165   0.9500
     0.9662   1.1332   1.2256   1.2295   1.2537   1.2715   1.3148   1.3227
     1.3284   1.3337   1.3421   1.3635   1.3866   1.4350   1.4386   1.4422
     1.4513   1.4593   1.4813   1.8830   2.0932   2.0954   2.0958   2.1129
     2.2688   2.3029   2.3333   2.3347   2.3879

     highest occupied, lowest unoccupied level (ev):    -3.6470   -4.0625

!    total energy              =   -1940.17816427 Ry
     Harris-Foulkes estimate   =   -1940.17816427 Ry
     estimated scf accuracy    <          4.2E-09 Ry

     total all-electron energy =     -7770.002641 Ry

     The total energy is the sum of the following terms:

     one-electron contribution =  -10643.57651298 Ry
     hartree contribution      =    5407.37725534 Ry
     xc contribution           =    -430.67606118 Ry
     ewald contribution        =    4370.14442181 Ry
     DFT-D3 Dispersion         =      -0.27012401 Ry
     one-center paw contrib.   =    -643.17714325 Ry

     total magnetization       =     1.00 Bohr mag/cell
     absolute magnetization    =     2.39 Bohr mag/cell

     convergence has been achieved in  17 iterations

     negative rho (up, down):  4.795E-01 7.793E-03

     Forces acting on atoms (cartesian axes, Ry/au):

     atom    1 type  1   force =    -0.00001506   -0.00005737    0.00000000
     atom    2 type  1   force =    -0.00005363    0.00002898    0.00000000
     atom    3 type  1   force =    -0.00000511   -0.00001644    0.00000000
     atom    4 type  1   force =    -0.00004660   -0.00003861    0.00000000
     atom    5 type  1   force =    -0.00006185   -0.00009604    0.00000000
     atom    6 type  1   force =    -0.00001131   -0.00004373    0.00000000
     atom    7 type  1   force =    -0.00005470   -0.00007107    0.00000000
     atom    8 type  1   force =     0.00000131   -0.00003844    0.00000000
     atom    9 type  1   force =     0.00005508    0.00003411    0.00000000
     atom   10 type  1   force =     0.00011292    0.00001922    0.00000000
     atom   11 type  1   force =     0.00002417   -0.00007296    0.00000000
     atom   12 type  1   force =    -0.00000739   -0.00003899    0.00000000
     atom   13 type  1   force =    -0.00002212   -0.00004210    0.00000000
     atom   14 type  1   force =    -0.00001452   -0.00006982    0.00000000
     atom   15 type  1   force =    -0.00004541    0.00004694    0.00000000
     atom   16 type  1   force =    -0.00005108   -0.00001603    0.00000000
     atom   17 type  1   force =     0.00005612    0.00001806    0.00000000
     atom   18 type  1   force =     0.00008049    0.00002572    0.00000000
     atom   19 type  1   force =    -0.00002336    0.00001085    0.00000000
     atom   20 type  1   force =     0.00003565   -0.00003167    0.00000000
     atom   21 type  1   force =     0.00006223    0.00004645    0.00000000
     atom   22 type  1   force =     0.00005947    0.00005123    0.00000000
     atom   23 type  1   force =    -0.00003411    0.00011157    0.00000000
     atom   24 type  1   force =    -0.00009992    0.00002564    0.00000000
     atom   25 type  4   force =     0.00005985   -0.00000769    0.00000000
     atom   26 type  1   force =     0.00000609   -0.00006763    0.00000000
     atom   27 type  1   force =     0.00008074   -0.00000450    0.00000000
     atom   28 type  1   force =     0.00004679    0.00003491    0.00000000
     atom   29 type  1   force =     0.00006962    0.00009131    0.00000000
     atom   30 type  1   force =     0.00002435    0.00006245    0.00000000
     atom   31 type  1   force =    -0.00008695    0.00005801    0.00000000
     atom   32 type  1   force =    -0.00006092    0.00006918    0.00000000
     atom   33 type  1   force =     0.00002874   -0.00004180    0.00000000
     atom   34 type  1   force =     0.00003959   -0.00008722    0.00000000
     atom   35 type  1   force =     0.00004561    0.00001086    0.00000000
     atom   36 type  1   force =    -0.00005856    0.00004331    0.00000000
     atom   37 type  1   force =     0.00000228    0.00001505    0.00000000
     atom   38 type  1   force =    -0.00003141   -0.00000939    0.00000000
     atom   39 type  1   force =    -0.00008718    0.00000656    0.00000000
     atom   40 type  1   force =     0.00005232    0.00010401    0.00000000
     atom   41 type  1   force =     0.00006730   -0.00003338    0.00000000
     atom   42 type  1   force =    -0.00000607    0.00000213    0.00000000
     atom   43 type  1   force =    -0.00006815    0.00000488    0.00000000
     atom   44 type  1   force =    -0.00009176    0.00004187    0.00000000
     atom   45 type  1   force =    -0.00006448   -0.00005467    0.00000000
     atom   46 type  1   force =    -0.00001790   -0.00002686    0.00000000
     atom   47 type  1   force =    -0.00003592    0.00005156    0.00000000
     atom   48 type  1   force =     0.00006047   -0.00000660    0.00000000
     atom   49 type  1   force =     0.00003746   -0.00006765    0.00000000
     atom   50 type  2   force =     0.00007535    0.00003713    0.00000000
     atom   51 type  2   force =     0.00006925    0.00002605    0.00000000
     atom   52 type  2   force =     0.00006211    0.00002232    0.00000000
     atom   53 type  2   force =     0.00003363   -0.00001432    0.00000000
     atom   54 type  2   force =     0.00006871   -0.00007079    0.00000000
     atom   55 type  2   force =     0.00006122   -0.00001924    0.00000000
     atom   56 type  2   force =     0.00005509    0.00005260    0.00000000
     atom   57 type  2   force =     0.00001752   -0.00002061    0.00000000
     atom   58 type  2   force =     0.00000650   -0.00009672    0.00000000
     atom   59 type  2   force =     0.00008353   -0.00004300    0.00000000
     atom   60 type  2   force =     0.00009622    0.00006119    0.00000000
     atom   61 type  2   force =    -0.00002934   -0.00000365    0.00000000
     atom   62 type  2   force =     0.00004685    0.00000731    0.00000000
     atom   63 type  2   force =     0.00006618    0.00004088    0.00000000
     atom   64 type  2   force =    -0.00000434    0.00007654    0.00000000
     atom   65 type  2   force =    -0.00003599    0.00004266    0.00000000
     atom   66 type  2   force =    -0.00000212    0.00001185    0.00000000
     atom   67 type  3   force =     0.00006941   -0.00001469    0.00000000
     atom   68 type  2   force =    -0.00003467    0.00004071    0.00000000
     atom   69 type  2   force =    -0.00001429    0.00005857    0.00000000
     atom   70 type  2   force =     0.00007201    0.00002128    0.00000000
     atom   71 type  2   force =     0.00004922    0.00003403    0.00000000
     atom   72 type  2   force =    -0.00002616    0.00006899    0.00000000
     atom   73 type  2   force =    -0.00009471    0.00006802    0.00000000
     atom   74 type  2   force =    -0.00001163    0.00001207    0.00000000
     atom   75 type  5   force =     0.00003112   -0.00008431    0.00000000
     atom   76 type  2   force =    -0.00002219   -0.00012517    0.00000000
     atom   77 type  2   force =    -0.00000759   -0.00001942    0.00000000
     atom   78 type  2   force =    -0.00005512   -0.00003417    0.00000000
     atom   79 type  2   force =    -0.00002897    0.00007339    0.00000000
     atom   80 type  2   force =    -0.00008001    0.00003012    0.00000000
     atom   81 type  2   force =    -0.00013105    0.00003772    0.00000000
     atom   82 type  2   force =    -0.00006616   -0.00003379    0.00000000
     atom   83 type  2   force =     0.00003491   -0.00009340    0.00000000
     atom   84 type  2   force =    -0.00003051   -0.00008153    0.00000000
     atom   85 type  2   force =    -0.00010645    0.00000126    0.00000000
     atom   86 type  2   force =    -0.00008318    0.00005823    0.00000000
     atom   87 type  2   force =    -0.00007469   -0.00004265    0.00000000
     atom   88 type  2   force =    -0.00008951   -0.00006040    0.00000000
     atom   89 type  2   force =    -0.00010522   -0.00003688    0.00000000
     atom   90 type  2   force =     0.00003456    0.00000522    0.00000000
     atom   91 type  2   force =    -0.00001569   -0.00004245    0.00000000
     atom   92 type  2   force =     0.00005674    0.00004995    0.00000000
     atom   93 type  2   force =    -0.00001195    0.00011760    0.00000000
     atom   94 type  2   force =     0.00002471    0.00003098    0.00000000
     atom   95 type  2   force =     0.00002046   -0.00010990    0.00000000
     atom   96 type  2   force =    -0.00004549   -0.00005893    0.00000000
     atom   97 type  2   force =     0.00005762    0.00001798    0.00000000
     atom   98 type  2   force =     0.00006092    0.00002717    0.00000000

     Total force =     0.000762     Total SCF correction =     0.000110
     SCF correction compared to forces is large: reduce conv_thr to get better values


     Computing stress (Cartesian axis) and pressure


     negative rho (up, down):  4.795E-01 7.793E-03
          total   stress  (Ry/bohr**3)                   (kbar)     P=   -0.18
  -0.00000018   0.00000001   0.00000000         -0.03      0.00      0.00
   0.00000001  -0.00000017   0.00000000          0.00     -0.02      0.00
   0.00000000   0.00000000  -0.00000334          0.00      0.00     -0.49


     Writing output data file C2Cn.save/
 
     init_run     :      9.46s CPU      9.79s WALL (       2 calls)
     electrons    :   3325.60s CPU   3358.29s WALL (       8 calls)
     update_pot   :     20.32s CPU     20.42s WALL (       6 calls)
     forces       :     30.76s CPU     31.26s WALL (       8 calls)
     stress       :     96.29s CPU     96.87s WALL (       8 calls)

     Called by init_run:
     wfcinit      :      3.61s CPU      3.75s WALL (       2 calls)
     potinit      :      2.05s CPU      2.09s WALL (       2 calls)
     hinit0       :      2.88s CPU      2.93s WALL (       2 calls)

     Called by electrons:
     c_bands      :   3239.18s CPU   3267.55s WALL (      74 calls)
     sum_band     :     43.28s CPU     44.36s WALL (      74 calls)
     v_of_rho     :     14.39s CPU     14.81s WALL (      76 calls)
     newd         :      4.79s CPU      5.45s WALL (      76 calls)
     PAW_pot      :     16.38s CPU     16.55s WALL (      82 calls)
     mix_rho      :      1.07s CPU      1.18s WALL (      74 calls)

     Called by c_bands:
     init_us_2    :      2.95s CPU      3.02s WALL (     344 calls)
     rcgdiagg     :   3161.77s CPU   3188.54s WALL (     166 calls)
     wfcrot       :     78.45s CPU     79.93s WALL (     142 calls)

     Called by sum_band:
     sum_band:bec :      0.10s CPU      0.10s WALL (     160 calls)
     addusdens    :      5.17s CPU      5.74s WALL (      74 calls)

     Called by *cgdiagg:
     h_psi        :   1623.77s CPU   1638.41s WALL (  140847 calls)
     s_psi        :    935.57s CPU    943.26s WALL (  281552 calls)
     rdiaghg      :      2.49s CPU      2.57s WALL (     142 calls)

     Called by h_psi:
     h_psi:pot    :   1621.97s CPU   1636.58s WALL (  140847 calls)
     h_psi:calbec :    569.78s CPU    574.80s WALL (  140847 calls)
     vloc_psi     :    560.91s CPU    567.55s WALL (  140847 calls)
     add_vuspsi   :    489.56s CPU    492.85s WALL (  140847 calls)
     hs_1psi      :   2027.25s CPU   2044.43s WALL (  140705 calls)
     s_1psi       :    956.67s CPU    964.27s WALL (  140705 calls)

     General routines
     calbec       :   1065.20s CPU   1074.96s WALL (  281792 calls)
     fft          :     12.72s CPU     12.90s WALL (    1558 calls)
     ffts         :      0.54s CPU      0.56s WALL (     148 calls)
     fftw         :    525.69s CPU    531.82s WALL (  335130 calls)
 
     Parallel routines
     fft_scatt_xy :     50.40s CPU     50.93s WALL (  336836 calls)
     fft_scatt_yz :    154.49s CPU    156.80s WALL (  336836 calls)
 
     PWSCF        :  58m 9.23s CPU  58m48.93s WALL

 
   This run was terminated on:  18:31:24   8Jun2021            

=------------------------------------------------------------------------------=
   JOB DONE.
=------------------------------------------------------------------------------=
