
     Program PWSCF v.6.4.1 starts on 21Sep2021 at  6: 3:10 

     This program is part of the open-source Quantum ESPRESSO suite
     for quantum simulation of materials; please cite
         "P. Giannozzi et al., J. Phys.:Condens. Matter 21 395502 (2009);
         "P. Giannozzi et al., J. Phys.:Condens. Matter 29 465901 (2017);
          URL http://www.quantum-espresso.org", 
     in publications or presentations arising from this work. More details at
     http://www.quantum-espresso.org/quote

     Parallel version (MPI), running on    64 processors

     MPI processes distributed on     2 nodes
     R & G space division:  proc/nbgrp/npool/nimage =      64
     Waiting for input...
     Reading input from standard input

     Current dimensions of program PWSCF are:
     Max number of different atomic species (ntypx) = 10
     Max number of k-points (npk) =  40000
     Max angular momentum in pseudopotentials (lmaxx) =  3

     IMPORTANT: XC functional enforced from input :
     Exchange-correlation      = HSE ( 1  4 12  4 0 0)
     EXX-fraction              =        0.25
     Using LIBXC version       =    4   3   4
     Any further DFT definition will be discarded
     Please, verify this is what you really want

               file N.pbe-n-kjpaw_psl.1.0.0.UPF: wavefunction(s)  2S renormalized
               file C.pbe-n-kjpaw_psl.1.0.0.UPF: wavefunction(s)  2S 2P renormalized
               file C.pbe-n-kjpaw_psl.1.0.0.UPF: wavefunction(s)  2S 2P renormalized
               file C.pbe-n-kjpaw_psl.1.0.0.UPF: wavefunction(s)  2S 2P renormalized
     EXX fraction changed:   0.32
     EXX Screening parameter changed:    0.0455000

     --------------------------------------------
     Parameters for DFT-D3 Dispersion Correction:
     --------------------------------------------
       Reference C6 values for interpolation: 

         atom   Coordination number   C6
         B          0.000           214.36
         B          0.971           150.74
         B          1.944           106.23
         B          2.913            62.89
         B          4.586            56.06
         C1         0.000            98.23
         C1         0.987            86.49
         C1         1.998            58.72
         C1         2.999            51.56
         C1         3.984            36.41
         C2         0.000            98.23
         C2         0.987            86.49
         C2         1.998            58.72
         C2         2.999            51.56
         C2         3.984            36.41
         C3         0.000            98.23
         C3         0.987            86.49
         C3         1.998            58.72
         C3         2.999            51.56
         C3         3.984            36.41
         N          0.000            50.54
         N          0.994            44.25
         N          2.014            39.35
         N          2.990            31.16

       Values used:

         atom   Coordination number  R0_AB[au]  C6      C8
         B          3.325            3.039     62.90   2506.24
         B          3.317            3.039     62.90   2506.44
         B          3.317            3.039     62.90   2506.43
         B          3.325            3.039     62.90   2506.25
         B          3.327            3.039     62.90   2506.21
         B          3.324            3.039     62.90   2506.27
         B          3.326            3.039     62.90   2506.22
         B          3.325            3.039     62.90   2506.26
         B          3.323            3.039     62.90   2506.30
         B          3.303            3.039     62.91   2506.76
         B          3.322            3.039     62.90   2506.33
         B          3.329            3.039     62.90   2506.15
         B          3.325            3.039     62.90   2506.24
         B          3.324            3.039     62.90   2506.27
         B          3.325            3.039     62.90   2506.26
         B          3.327            3.039     62.90   2506.21
         B          3.297            3.039     62.91   2506.88
         B          3.297            3.039     62.91   2506.90
         B          3.336            3.039     62.89   2505.99
         B          3.329            3.039     62.90   2506.15
         B          3.327            3.039     62.90   2506.21
         B          3.323            3.039     62.90   2506.31
         B          3.319            3.039     62.90   2506.40
         B          3.314            3.039     62.90   2506.51
         C2         3.249            2.750     49.43   1429.56
         B          3.297            3.039     62.91   2506.90
         B          3.322            3.039     62.90   2506.33
         B          3.325            3.039     62.90   2506.25
         B          3.321            3.039     62.90   2506.36
         B          3.319            3.039     62.90   2506.39
         B          3.315            3.039     62.90   2506.50
         B          3.314            3.039     62.90   2506.51
         B          3.297            3.039     62.91   2506.88
         B          3.303            3.039     62.91   2506.76
         B          3.317            3.039     62.90   2506.43
         B          3.316            3.039     62.90   2506.45
         B          3.318            3.039     62.90   2506.42
         B          3.319            3.039     62.90   2506.39
         B          3.319            3.039     62.90   2506.40
         B          3.327            3.039     62.90   2506.21
         B          3.323            3.039     62.90   2506.30
         B          3.317            3.039     62.90   2506.44
         B          3.319            3.039     62.90   2506.40
         B          3.316            3.039     62.90   2506.45
         B          3.321            3.039     62.90   2506.36
         B          3.323            3.039     62.90   2506.31
         B          3.325            3.039     62.90   2506.26
         B          3.325            3.039     62.90   2506.26
         B          3.325            3.039     62.90   2506.24
         N          3.129            2.478     31.22    688.74
         N          3.128            2.478     31.22    688.75
         N          3.125            2.478     31.22    688.79
         N          3.128            2.478     31.22    688.75
         N          3.130            2.478     31.22    688.73
         N          3.129            2.478     31.22    688.75
         N          3.129            2.478     31.22    688.75
         N          3.129            2.478     31.22    688.75
         N          3.129            2.478     31.22    688.74
         N          3.124            2.478     31.22    688.79
         N          3.123            2.478     31.22    688.80
         N          3.132            2.478     31.22    688.72
         N          3.130            2.478     31.22    688.74
         N          3.129            2.478     31.22    688.75
         N          3.130            2.478     31.22    688.74
         N          3.129            2.478     31.22    688.74
         N          3.132            2.478     31.22    688.71
         C1         3.192            2.750     50.14   1450.24
         N          3.134            2.478     31.22    688.70
         N          3.132            2.478     31.22    688.72
         N          3.130            2.478     31.22    688.73
         N          3.129            2.478     31.22    688.75
         N          3.127            2.478     31.22    688.76
         N          3.126            2.478     31.22    688.78
         N          3.155            2.478     31.21    688.52
         C3         3.192            2.750     50.14   1450.24
         N          3.123            2.478     31.22    688.80
         N          3.128            2.478     31.22    688.75
         N          3.127            2.478     31.22    688.77
         N          3.127            2.478     31.22    688.76
         N          3.127            2.478     31.22    688.77
         N          3.126            2.478     31.22    688.78
         N          3.132            2.478     31.22    688.71
         N          3.124            2.478     31.22    688.79
         N          3.125            2.478     31.22    688.79
         N          3.126            2.478     31.22    688.77
         N          3.126            2.478     31.22    688.77
         N          3.127            2.478     31.22    688.76
         N          3.127            2.478     31.22    688.76
         N          3.129            2.478     31.22    688.74
         N          3.129            2.478     31.22    688.74
         N          3.128            2.478     31.22    688.75
         N          3.129            2.478     31.22    688.74
         N          3.126            2.478     31.22    688.77
         N          3.127            2.478     31.22    688.77
         N          3.129            2.478     31.22    688.75
         N          3.130            2.478     31.22    688.74
         N          3.129            2.478     31.22    688.75
         N          3.129            2.478     31.22    688.74

         Molecular C6 ( Ry / a.u.^6 ) =    437698.51


     gamma-point specific algorithms are used
     Message from routine setup :
     BEWARE: nonlinear core correction is not consistent with hybrid XC

     Subspace diagonalization in iterative solution of the eigenvalue problem:
     one sub-group per band group will be used
     scalapack distributed-memory algorithm (size of sub-group:  5*  5 procs)

     EXX: grid of k+q points same as grid of k-points
 
     Parallelization info
     --------------------
     sticks:   dense  smooth     PW     G-vecs:    dense   smooth      PW
     Min         142     142     34                12542    12542    1554
     Max         144     144     36                12556    12556    1580
     Sum        9125    9125   2275               803023   803023  100283
 


     bravais-lattice index     =            0
     lattice parameter (alat)  =      33.2346  a.u.
     unit-cell volume          =   36184.4017 (a.u.)^3
     number of atoms/cell      =           98
     number of atomic types    =            5
     number of electrons       =       391.00
     number of Kohn-Sham states=          245
     kinetic-energy cutoff     =      30.0000  Ry
     charge density cutoff     =     120.0000  Ry
     cutoff for Fock operator  =     120.0000  Ry
     convergence threshold     =      1.0E-06
     mixing beta               =       0.7000
     number of iterations used =            8  plain     mixing
     Exchange-correlation      = HSE ( 1  4 12  4 0 0)
     EXX-fraction              =        0.32
     Using LIBXC version       =    4   3   4

     celldm(1)=  33.234611  celldm(2)=   0.000000  celldm(3)=   0.000000
     celldm(4)=   0.000000  celldm(5)=   0.000000  celldm(6)=   0.000000

     crystal axes: (cart. coord. in units of alat)
               a(1) = (   1.000640  -0.000349   0.000000 )  
               a(2) = (  -0.500622   0.866405   0.000000 )  
               a(3) = (   0.000000   0.000000   1.137204 )  

     reciprocal axes: (cart. coord. in units 2 pi/alat)
               b(1) = (  0.999562  0.577562  0.000000 )  
               b(2) = (  0.000402  1.154427  0.000000 )  
               b(3) = (  0.000000  0.000000  0.879350 )  


     PseudoPot. # 1 for B  read from file:
     ./pseudo/B.pbe-n-kjpaw_psl.1.0.0.UPF
     MD5 check sum: 8c825a5969375aca5c2c6ad5945b3059
     Pseudo is Projector augmented-wave + core cor, Zval =  3.0
     Generated using "atomic" code by A. Dal Corso v.6.3
     Shape of augmentation charge: PSQ
     Using radial grid of 1059 points,  4 beta functions with: 
                l(1) =   0
                l(2) =   0
                l(3) =   1
                l(4) =   1
     Q(r) pseudized with 0 coefficients 


     PseudoPot. # 2 for N  read from file:
     ./pseudo/N.pbe-n-kjpaw_psl.1.0.0.UPF
     MD5 check sum: 14c48229446f9f2d411169a3abcbc3fa
     Pseudo is Projector augmented-wave + core cor, Zval =  5.0
     Generated using "atomic" code by A. Dal Corso v.6.3
     Shape of augmentation charge: PSQ
     Using radial grid of 1085 points,  4 beta functions with: 
                l(1) =   0
                l(2) =   0
                l(3) =   1
                l(4) =   1
     Q(r) pseudized with 0 coefficients 


     PseudoPot. # 3 for C  read from file:
     ./pseudo/C.pbe-n-kjpaw_psl.1.0.0.UPF
     MD5 check sum: 5f16ad9a65e90284d1d834d4ab3b0f7d
     Pseudo is Projector augmented-wave + core cor, Zval =  4.0
     Generated using "atomic" code by A. Dal Corso v.6.3
     Shape of augmentation charge: PSQ
     Using radial grid of 1073 points,  4 beta functions with: 
                l(1) =   0
                l(2) =   0
                l(3) =   1
                l(4) =   1
     Q(r) pseudized with 0 coefficients 


     PseudoPot. # 4 for C  read from file:
     ./pseudo/C.pbe-n-kjpaw_psl.1.0.0.UPF
     MD5 check sum: 5f16ad9a65e90284d1d834d4ab3b0f7d
     Pseudo is Projector augmented-wave + core cor, Zval =  4.0
     Generated using "atomic" code by A. Dal Corso v.6.3
     Shape of augmentation charge: PSQ
     Using radial grid of 1073 points,  4 beta functions with: 
                l(1) =   0
                l(2) =   0
                l(3) =   1
                l(4) =   1
     Q(r) pseudized with 0 coefficients 


     PseudoPot. # 5 for C  read from file:
     ./pseudo/C.pbe-n-kjpaw_psl.1.0.0.UPF
     MD5 check sum: 5f16ad9a65e90284d1d834d4ab3b0f7d
     Pseudo is Projector augmented-wave + core cor, Zval =  4.0
     Generated using "atomic" code by A. Dal Corso v.6.3
     Shape of augmentation charge: PSQ
     Using radial grid of 1073 points,  4 beta functions with: 
                l(1) =   0
                l(2) =   0
                l(3) =   1
                l(4) =   1
     Q(r) pseudized with 0 coefficients 


     atomic species   valence    mass     pseudopotential
        B              3.00    10.00000     B ( 1.00)
        N              5.00    14.00000     N ( 1.00)
        C1             4.00    12.00000     C ( 1.00)
        C2             4.00    12.00000     C ( 1.00)
        C3             4.00    12.00000     C ( 1.00)

     Starting magnetic structure 
     atomic species   magnetization
        B            0.000
        N            0.000
        C1           1.000
        C2           0.000
        C3           0.000

     No symmetry found



   Cartesian axes

     site n.     atom                  positions (alat units)
         1           B   tau(   1) = (  -0.0000233   0.0821617   0.5686018  )
         2           B   tau(   2) = (  -0.0713866   0.2062009   0.5686018  )
         3           B   tau(   3) = (  -0.1430783   0.3301031   0.5686018  )
         4           B   tau(   4) = (  -0.2149375   0.4537632   0.5686018  )
         5           B   tau(   5) = (  -0.2861755   0.5775434   0.5686018  )
         6           B   tau(   6) = (  -0.3574872   0.7014372   0.5686018  )
         7           B   tau(   7) = (  -0.4290711   0.8250953   0.5686018  )
         8           B   tau(   8) = (   0.1428779   0.0818580   0.5686018  )
         9           B   tau(   9) = (   0.0712222   0.2053694   0.5686018  )
        10           B   tau(  10) = (   0.0002327   0.3301362   0.5686018  )
        11           B   tau(  11) = (  -0.0725304   0.4539838   0.5686018  )
        12           B   tau(  12) = (  -0.1441451   0.5777657   0.5686018  )
        13           B   tau(  13) = (  -0.2149187   0.7014543   0.5686018  )
        14           B   tau(  14) = (  -0.2861881   0.8249309   0.5686018  )
        15           B   tau(  15) = (   0.2862131   0.0818140   0.5686018  )
        16           B   tau(  16) = (   0.2148456   0.2045690   0.5686018  )
        17           B   tau(  17) = (   0.1436176   0.3272083   0.5686018  )
        18           B   tau(  18) = (   0.0696289   0.4562046   0.5686018  )
        19           B   tau(  19) = (  -0.0025925   0.5788678   0.5686018  )
        20           B   tau(  20) = (  -0.0724144   0.7020070   0.5686018  )
        21           B   tau(  21) = (  -0.1432370   0.8251201   0.5686018  )
        22           B   tau(  22) = (   0.4289841   0.0823577   0.5686018  )
        23           B   tau(  23) = (   0.3574544   0.2061244   0.5686018  )
        24           B   tau(  24) = (   0.2853662   0.3296798   0.5686018  )
        25           C2  tau(  25) = (   0.2152526   0.4530948   0.5686018  )
        26           B   tau(  26) = (   0.1397476   0.5776538   0.5686018  )
        27           B   tau(  27) = (   0.0705912   0.7018778   0.5686018  )
        28           B   tau(  28) = (  -0.0004212   0.8253162   0.5686018  )
        29           B   tau(  29) = (   0.5717760   0.0822445   0.5686018  )
        30           B   tau(  30) = (   0.5003561   0.2060412   0.5686018  )
        31           B   tau(  31) = (   0.4287233   0.3298475   0.5686018  )
        32           B   tau(  32) = (   0.3571899   0.4540822   0.5686018  )
        33           B   tau(  33) = (   0.2884561   0.5780758   0.5686018  )
        34           B   tau(  34) = (   0.2142280   0.7007869   0.5686018  )
        35           B   tau(  35) = (   0.1426011   0.8249144   0.5686018  )
        36           B   tau(  36) = (   0.7147681   0.0821485   0.5686018  )
        37           B   tau(  37) = (   0.6432419   0.2059952   0.5686018  )
        38           B   tau(  38) = (   0.5717591   0.3297149   0.5686018  )
        39           B   tau(  39) = (   0.5002362   0.4534298   0.5686018  )
        40           B   tau(  40) = (   0.4302789   0.5777103   0.5686018  )
        41           B   tau(  41) = (   0.3577740   0.7016916   0.5686018  )
        42           B   tau(  42) = (   0.2857495   0.8247786   0.5686018  )
        43           B   tau(  43) = (   0.8578476   0.0820925   0.5686018  )
        44           B   tau(  44) = (   0.7862593   0.2059749   0.5686018  )
        45           B   tau(  45) = (   0.7146801   0.3297618   0.5686018  )
        46           B   tau(  46) = (   0.6431861   0.4533666   0.5686018  )
        47           B   tau(  47) = (   0.5722715   0.5772817   0.5686018  )
        48           B   tau(  48) = (   0.5005658   0.7013916   0.5686018  )
        49           B   tau(  49) = (   0.4288522   0.8249958   0.5686018  )
        50           N   tau(  50) = (   0.0714331   0.0409759   0.5686018  )
        51           N   tau(  51) = (  -0.0001876   0.1644906   0.5686018  )
        52           N   tau(  52) = (  -0.0713557   0.2888776   0.5686018  )
        53           N   tau(  53) = (  -0.1436341   0.4125195   0.5686018  )
        54           N   tau(  54) = (  -0.2151393   0.5362333   0.5686018  )
        55           N   tau(  55) = (  -0.2862233   0.6600795   0.5686018  )
        56           N   tau(  56) = (  -0.3576342   0.7838513   0.5686018  )
        57           N   tau(  57) = (   0.2145160   0.0409095   0.5686018  )
        58           N   tau(  58) = (   0.1429488   0.1642146   0.5686018  )
        59           N   tau(  59) = (   0.0713660   0.2876061   0.5686018  )
        60           N   tau(  60) = (  -0.0007870   0.4130708   0.5686018  )
        61           N   tau(  61) = (  -0.0731783   0.5365814   0.5686018  )
        62           N   tau(  62) = (  -0.1436888   0.6603299   0.5686018  )
        63           N   tau(  63) = (  -0.2147393   0.7838935   0.5686018  )
        64           N   tau(  64) = (   0.3576142   0.0410192   0.5686018  )
        65           N   tau(  65) = (   0.2863754   0.1641474   0.5686018  )
        66           N   tau(  66) = (   0.2150130   0.2867948   0.5686018  )
        67           C1  tau(  67) = (   0.1457790   0.4134614   0.5686018  )
        68           N   tau(  68) = (   0.0679304   0.5381514   0.5686018  )
        69           N   tau(  69) = (  -0.0012643   0.6611402   0.5686018  )
        70           N   tau(  70) = (  -0.0719434   0.7842561   0.5686018  )
        71           N   tau(  71) = (   0.5003317   0.0412613   0.5686018  )
        72           N   tau(  72) = (   0.4288916   0.1649165   0.5686018  )
        73           N   tau(  73) = (   0.3571532   0.2888803   0.5686018  )
        74           N   tau(  74) = (   0.2850449   0.4128002   0.5686018  )
        75           C3  tau(  75) = (   0.2148394   0.5330775   0.5686018  )
        76           N   tau(  76) = (   0.1418947   0.6602027   0.5686018  )
        77           N   tau(  77) = (   0.0709485   0.7841876   0.5686018  )
        78           N   tau(  78) = (   0.6432797   0.0409898   0.5686018  )
        79           N   tau(  79) = (   0.5717930   0.1647678   0.5686018  )
        80           N   tau(  80) = (   0.5002145   0.2885720   0.5686018  )
        81           N   tau(  81) = (   0.4284168   0.4123125   0.5686018  )
        82           N   tau(  82) = (   0.3591528   0.5364523   0.5686018  )
        83           N   tau(  83) = (   0.2866267   0.6604486   0.5686018  )
        84           N   tau(  84) = (   0.2141647   0.7834136   0.5686018  )
        85           N   tau(  85) = (   0.7862879   0.0408973   0.5686018  )
        86           N   tau(  86) = (   0.7147525   0.1647085   0.5686018  )
        87           N   tau(  87) = (   0.6432213   0.2884853   0.5686018  )
        88           N   tau(  88) = (   0.5716419   0.4121672   0.5686018  )
        89           N   tau(  89) = (   0.5010498   0.5359745   0.5686018  )
        90           N   tau(  90) = (   0.4292784   0.6601520   0.5686018  )
        91           N   tau(  91) = (   0.3574711   0.7839737   0.5686018  )
        92           N   tau(  92) = (   0.9292454   0.0408710   0.5686018  )
        93           N   tau(  93) = (   0.8577438   0.1646625   0.5686018  )
        94           N   tau(  94) = (   0.7861596   0.2884650   0.5686018  )
        95           N   tau(  95) = (   0.7144506   0.4121259   0.5686018  )
        96           N   tau(  96) = (   0.6433014   0.5358440   0.5686018  )
        97           N   tau(  97) = (   0.5718474   0.6598256   0.5686018  )
        98           N   tau(  98) = (   0.5002484   0.7837058   0.5686018  )

     number of k points=     1
                       cart. coord. in units 2pi/alat
        k(    1) = (   0.0000000   0.0000000   0.0000000), wk =   1.0000000

     Dense  grid:   401512 G-vectors     FFT dimensions: ( 120, 120, 135)

     Occupations read from input 

      Spin-up

        1.0000   1.0000   1.0000   1.0000   1.0000   1.0000   1.0000   1.0000
        1.0000   1.0000   1.0000   1.0000   1.0000   1.0000   1.0000   1.0000
        1.0000   1.0000   1.0000   1.0000   1.0000   1.0000   1.0000   1.0000
        1.0000   1.0000   1.0000   1.0000   1.0000   1.0000   1.0000   1.0000
        1.0000   1.0000   1.0000   1.0000   1.0000   1.0000   1.0000   1.0000
        1.0000   1.0000   1.0000   1.0000   1.0000   1.0000   1.0000   1.0000
        1.0000   1.0000   1.0000   1.0000   1.0000   1.0000   1.0000   1.0000
        1.0000   1.0000   1.0000   1.0000   1.0000   1.0000   1.0000   1.0000
        1.0000   1.0000   1.0000   1.0000   1.0000   1.0000   1.0000   1.0000
        1.0000   1.0000   1.0000   1.0000   1.0000   1.0000   1.0000   1.0000
        1.0000   1.0000   1.0000   1.0000   1.0000   1.0000   1.0000   1.0000
        1.0000   1.0000   1.0000   1.0000   1.0000   1.0000   1.0000   1.0000
        1.0000   1.0000   1.0000   1.0000   1.0000   1.0000   1.0000   1.0000
        1.0000   1.0000   1.0000   1.0000   1.0000   1.0000   1.0000   1.0000
        1.0000   1.0000   1.0000   1.0000   1.0000   1.0000   1.0000   1.0000
        1.0000   1.0000   1.0000   1.0000   1.0000   1.0000   1.0000   1.0000
        1.0000   1.0000   1.0000   1.0000   1.0000   1.0000   1.0000   1.0000
        1.0000   1.0000   1.0000   1.0000   1.0000   1.0000   1.0000   1.0000
        1.0000   1.0000   1.0000   1.0000   1.0000   1.0000   1.0000   1.0000
        1.0000   1.0000   1.0000   1.0000   1.0000   1.0000   1.0000   1.0000
        1.0000   1.0000   1.0000   1.0000   1.0000   1.0000   1.0000   1.0000
        1.0000   1.0000   1.0000   1.0000   1.0000   1.0000   1.0000   1.0000
        1.0000   1.0000   1.0000   1.0000   1.0000   1.0000   1.0000   1.0000
        1.0000   1.0000   1.0000   1.0000   1.0000   1.0000   1.0000   1.0000
        1.0000   1.0000   1.0000   1.0000   0.0000   0.0000   0.0000   0.0000
        0.0000   0.0000   0.0000   0.0000   0.0000   0.0000   0.0000   0.0000
        0.0000   0.0000   0.0000   0.0000   0.0000   0.0000   0.0000   0.0000
        0.0000   0.0000   0.0000   0.0000   0.0000   0.0000   0.0000   0.0000
        0.0000   0.0000   0.0000   0.0000   0.0000   0.0000   0.0000   0.0000
        0.0000   0.0000   0.0000   0.0000   0.0000   0.0000   0.0000   0.0000
        0.0000   0.0000   0.0000   0.0000   0.0000

      Spin-down

        1.0000   1.0000   1.0000   1.0000   1.0000   1.0000   1.0000   1.0000
        1.0000   1.0000   1.0000   1.0000   1.0000   1.0000   1.0000   1.0000
        1.0000   1.0000   1.0000   1.0000   1.0000   1.0000   1.0000   1.0000
        1.0000   1.0000   1.0000   1.0000   1.0000   1.0000   1.0000   1.0000
        1.0000   1.0000   1.0000   1.0000   1.0000   1.0000   1.0000   1.0000
        1.0000   1.0000   1.0000   1.0000   1.0000   1.0000   1.0000   1.0000
        1.0000   1.0000   1.0000   1.0000   1.0000   1.0000   1.0000   1.0000
        1.0000   1.0000   1.0000   1.0000   1.0000   1.0000   1.0000   1.0000
        1.0000   1.0000   1.0000   1.0000   1.0000   1.0000   1.0000   1.0000
        1.0000   1.0000   1.0000   1.0000   1.0000   1.0000   1.0000   1.0000
        1.0000   1.0000   1.0000   1.0000   1.0000   1.0000   1.0000   1.0000
        1.0000   1.0000   1.0000   1.0000   1.0000   1.0000   1.0000   1.0000
        1.0000   1.0000   1.0000   1.0000   1.0000   1.0000   1.0000   1.0000
        1.0000   1.0000   1.0000   1.0000   1.0000   1.0000   1.0000   1.0000
        1.0000   1.0000   1.0000   1.0000   1.0000   1.0000   1.0000   1.0000
        1.0000   1.0000   1.0000   1.0000   1.0000   1.0000   1.0000   1.0000
        1.0000   1.0000   1.0000   1.0000   1.0000   1.0000   1.0000   1.0000
        1.0000   1.0000   1.0000   1.0000   1.0000   1.0000   1.0000   1.0000
        1.0000   1.0000   1.0000   1.0000   1.0000   1.0000   1.0000   1.0000
        1.0000   1.0000   1.0000   1.0000   1.0000   1.0000   1.0000   1.0000
        1.0000   1.0000   1.0000   1.0000   1.0000   1.0000   1.0000   1.0000
        1.0000   1.0000   1.0000   1.0000   1.0000   1.0000   1.0000   1.0000
        1.0000   1.0000   1.0000   1.0000   1.0000   1.0000   1.0000   1.0000
        1.0000   1.0000   1.0000   1.0000   1.0000   1.0000   1.0000   1.0000
        1.0000   1.0000   1.0000   0.0000   0.0000   0.0000   0.0000   0.0000
        0.0000   0.0000   0.0000   0.0000   0.0000   0.0000   0.0000   0.0000
        0.0000   0.0000   0.0000   0.0000   0.0000   0.0000   0.0000   0.0000
        0.0000   0.0000   0.0000   0.0000   0.0000   0.0000   0.0000   0.0000
        0.0000   0.0000   0.0000   0.0000   0.0000   0.0000   0.0000   0.0000
        0.0000   0.0000   0.0000   0.0000   0.0000   0.0000   0.0000   0.0000
        0.0000   0.0000   0.0000   0.0000   0.0000

     Estimated max dynamical RAM per process >     197.10 MB

     Estimated total dynamical RAM >      12.32 GB
     Generating pointlists ...
     new r_m :   0.0336 (alat units)  1.1164 (a.u.) for type    1
     new r_m :   0.0332 (alat units)  1.1048 (a.u.) for type    2
     new r_m :   0.0330 (alat units)  1.0965 (a.u.) for type    3
     new r_m :   0.0330 (alat units)  1.0965 (a.u.) for type    4
     new r_m :   0.0330 (alat units)  1.0965 (a.u.) for type    5

     Check: negative core charge=   -0.000077

     Initial potential from superposition of free atoms

     starting charge  390.98597, renormalised to  391.00000

     negative rho (up, down):  3.966E-01 6.964E-03
     Starting wfcs are  392 randomized atomic wfcs

     total cpu time spent up to now is        5.4 secs

     Self-consistent Calculation

     iteration #  1     ecut=    30.00 Ry     beta= 0.70
     CG style diagonalization
     ethr =  1.00E-02,  avg # of iterations =  3.1

     negative rho (up, down):  1.405E+00 9.016E-03

     total cpu time spent up to now is       29.8 secs

     total energy              =   -1932.93488574 Ry
     Harris-Foulkes estimate   =   -1945.07686254 Ry
     estimated scf accuracy    <      18.92829201 Ry

     total magnetization       =     1.00 Bohr mag/cell
     absolute magnetization    =     1.57 Bohr mag/cell

     iteration #  2     ecut=    30.00 Ry     beta= 0.70
     CG style diagonalization
     ethr =  4.84E-03,  avg # of iterations =  4.1

     negative rho (up, down):  1.572E+00 6.951E-03

     total cpu time spent up to now is       53.4 secs

     total energy              =   -1937.07944103 Ry
     Harris-Foulkes estimate   =   -1942.60589543 Ry
     estimated scf accuracy    <      10.78675690 Ry

     total magnetization       =     1.00 Bohr mag/cell
     absolute magnetization    =     1.40 Bohr mag/cell

     iteration #  3     ecut=    30.00 Ry     beta= 0.70
     CG style diagonalization
     ethr =  2.76E-03,  avg # of iterations =  3.8

     negative rho (up, down):  1.807E+00 5.803E-03

     total cpu time spent up to now is       74.8 secs

     total energy              =   -1939.32402632 Ry
     Harris-Foulkes estimate   =   -1939.50864875 Ry
     estimated scf accuracy    <       0.35172264 Ry

     total magnetization       =     1.00 Bohr mag/cell
     absolute magnetization    =     1.27 Bohr mag/cell

     iteration #  4     ecut=    30.00 Ry     beta= 0.70
     CG style diagonalization
     ethr =  9.00E-05,  avg # of iterations =  9.1

     negative rho (up, down):  1.897E+00 5.099E-03

     total cpu time spent up to now is      128.3 secs

     total energy              =   -1939.40844203 Ry
     Harris-Foulkes estimate   =   -1939.59749727 Ry
     estimated scf accuracy    <       0.48967127 Ry

     total magnetization       =     1.00 Bohr mag/cell
     absolute magnetization    =     1.20 Bohr mag/cell

     iteration #  5     ecut=    30.00 Ry     beta= 0.70
     CG style diagonalization
     ethr =  9.00E-05,  avg # of iterations =  3.4

     negative rho (up, down):  1.938E+00 5.016E-03

     total cpu time spent up to now is      146.9 secs

     total energy              =   -1939.48469721 Ry
     Harris-Foulkes estimate   =   -1939.49025519 Ry
     estimated scf accuracy    <       0.01605216 Ry

     total magnetization       =     1.00 Bohr mag/cell
     absolute magnetization    =     1.22 Bohr mag/cell

     iteration #  6     ecut=    30.00 Ry     beta= 0.70
     CG style diagonalization
     c_bands:  2 eigenvalues not converged
     c_bands:  2 eigenvalues not converged
     ethr =  4.11E-06,  avg # of iterations =  4.7

     negative rho (up, down):  1.974E+00 5.044E-03

     total cpu time spent up to now is      174.8 secs

     total energy              =   -1939.49055588 Ry
     Harris-Foulkes estimate   =   -1939.49245395 Ry
     estimated scf accuracy    <       0.00792592 Ry

     total magnetization       =     1.00 Bohr mag/cell
     absolute magnetization    =     1.22 Bohr mag/cell

     iteration #  7     ecut=    30.00 Ry     beta= 0.70
     CG style diagonalization
     c_bands:  2 eigenvalues not converged
     c_bands:  2 eigenvalues not converged
     ethr =  2.03E-06,  avg # of iterations =  3.7

     negative rho (up, down):  1.978E+00 5.055E-03

     total cpu time spent up to now is      195.5 secs

     total energy              =   -1939.49235124 Ry
     Harris-Foulkes estimate   =   -1939.49258141 Ry
     estimated scf accuracy    <       0.00088130 Ry

     total magnetization       =     1.00 Bohr mag/cell
     absolute magnetization    =     1.23 Bohr mag/cell

     iteration #  8     ecut=    30.00 Ry     beta= 0.70
     CG style diagonalization
     ethr =  2.25E-07,  avg # of iterations =  3.5

     negative rho (up, down):  1.977E+00 5.067E-03

     total cpu time spent up to now is      214.8 secs

     total energy              =   -1939.49246839 Ry
     Harris-Foulkes estimate   =   -1939.49253550 Ry
     estimated scf accuracy    <       0.00027906 Ry

     total magnetization       =     1.00 Bohr mag/cell
     absolute magnetization    =     1.23 Bohr mag/cell

     iteration #  9     ecut=    30.00 Ry     beta= 0.70
     CG style diagonalization
     ethr =  7.14E-08,  avg # of iterations =  3.7

     negative rho (up, down):  1.976E+00 5.076E-03

     total cpu time spent up to now is      235.2 secs

     total energy              =   -1939.49257865 Ry
     Harris-Foulkes estimate   =   -1939.49255762 Ry
     estimated scf accuracy    <       0.00003577 Ry

     total magnetization       =     1.00 Bohr mag/cell
     absolute magnetization    =     1.23 Bohr mag/cell

     iteration # 10     ecut=    30.00 Ry     beta= 0.70
     CG style diagonalization
     ethr =  9.15E-09,  avg # of iterations =  3.8

     negative rho (up, down):  1.976E+00 5.103E-03

     total cpu time spent up to now is      256.3 secs

     total energy              =   -1939.49259049 Ry
     Harris-Foulkes estimate   =   -1939.49259445 Ry
     estimated scf accuracy    <       0.00002977 Ry

     total magnetization       =     1.00 Bohr mag/cell
     absolute magnetization    =     1.23 Bohr mag/cell

     iteration # 11     ecut=    30.00 Ry     beta= 0.70
     CG style diagonalization
     ethr =  7.61E-09,  avg # of iterations =  3.3

     negative rho (up, down):  1.976E+00 5.093E-03

     total cpu time spent up to now is      274.1 secs

     total energy              =   -1939.49259341 Ry
     Harris-Foulkes estimate   =   -1939.49259594 Ry
     estimated scf accuracy    <       0.00000556 Ry

     total magnetization       =     1.00 Bohr mag/cell
     absolute magnetization    =     1.23 Bohr mag/cell

     iteration # 12     ecut=    30.00 Ry     beta= 0.70
     CG style diagonalization
     ethr =  1.42E-09,  avg # of iterations =  3.9

     negative rho (up, down):  1.976E+00 5.092E-03
 
     Magnetic moment per site:
     atom:    1    charge:    0.8517    magn:   -0.0000    constr:    0.0000
     atom:    2    charge:    0.8461    magn:    0.0003    constr:    0.0000
     atom:    3    charge:    0.8457    magn:    0.0008    constr:    0.0000
     atom:    4    charge:    0.8495    magn:   -0.0000    constr:    0.0000
     atom:    5    charge:    0.8509    magn:    0.0000    constr:    0.0000
     atom:    6    charge:    0.8504    magn:    0.0001    constr:    0.0000
     atom:    7    charge:    0.8515    magn:   -0.0000    constr:    0.0000
     atom:    8    charge:    0.8501    magn:    0.0001    constr:    0.0000
     atom:    9    charge:    0.8505    magn:   -0.0003    constr:    0.0000
     atom:   10    charge:    0.8383    magn:    0.0030    constr:    0.0000
     atom:   11    charge:    0.8481    magn:    0.0005    constr:    0.0000
     atom:   12    charge:    0.8521    magn:    0.0001    constr:    0.0000
     atom:   13    charge:    0.8505    magn:   -0.0000    constr:    0.0000
     atom:   14    charge:    0.8504    magn:    0.0001    constr:    0.0000
     atom:   15    charge:    0.8507    magn:   -0.0001    constr:    0.0000
     atom:   16    charge:    0.8541    magn:    0.0001    constr:    0.0000
     atom:   17    charge:    0.8610    magn:    0.0025    constr:    0.0000
     atom:   18    charge:    0.8506    magn:    0.0075    constr:    0.0000
     atom:   19    charge:    0.8611    magn:   -0.0004    constr:    0.0000
     atom:   20    charge:    0.8521    magn:    0.0001    constr:    0.0000
     atom:   21    charge:    0.8509    magn:    0.0000    constr:    0.0000
     atom:   22    charge:    0.8482    magn:    0.0000    constr:    0.0000
     atom:   23    charge:    0.8441    magn:    0.0003    constr:    0.0000
     atom:   24    charge:    0.8448    magn:   -0.0007    constr:    0.0000
     atom:   25    charge:    1.6289    magn:   -0.0260    constr:    0.0000
     atom:   26    charge:    0.8506    magn:    0.0076    constr:    0.0000
     atom:   27    charge:    0.8480    magn:    0.0005    constr:    0.0000
     atom:   28    charge:    0.8495    magn:   -0.0000    constr:    0.0000
     atom:   29    charge:    0.8477    magn:    0.0001    constr:    0.0000
     atom:   30    charge:    0.8474    magn:    0.0000    constr:    0.0000
     atom:   31    charge:    0.8476    magn:   -0.0003    constr:    0.0000
     atom:   32    charge:    0.8447    magn:   -0.0007    constr:    0.0000
     atom:   33    charge:    0.8609    magn:    0.0026    constr:    0.0000
     atom:   34    charge:    0.8383    magn:    0.0030    constr:    0.0000
     atom:   35    charge:    0.8457    magn:    0.0008    constr:    0.0000
     atom:   36    charge:    0.8470    magn:    0.0003    constr:    0.0000
     atom:   37    charge:    0.8463    magn:   -0.0000    constr:    0.0000
     atom:   38    charge:    0.8474    magn:    0.0000    constr:    0.0000
     atom:   39    charge:    0.8441    magn:    0.0003    constr:    0.0000
     atom:   40    charge:    0.8541    magn:    0.0001    constr:    0.0000
     atom:   41    charge:    0.8504    magn:   -0.0003    constr:    0.0000
     atom:   42    charge:    0.8461    magn:    0.0003    constr:    0.0000
     atom:   43    charge:    0.8469    magn:   -0.0000    constr:    0.0000
     atom:   44    charge:    0.8470    magn:    0.0003    constr:    0.0000
     atom:   45    charge:    0.8477    magn:    0.0001    constr:    0.0000
     atom:   46    charge:    0.8483    magn:    0.0000    constr:    0.0000
     atom:   47    charge:    0.8507    magn:   -0.0001    constr:    0.0000
     atom:   48    charge:    0.8501    magn:    0.0001    constr:    0.0000
     atom:   49    charge:    0.8517    magn:   -0.0000    constr:    0.0000
     atom:   50    charge:    2.7553    magn:    0.0005    constr:    0.0000
     atom:   51    charge:    2.7566    magn:   -0.0001    constr:    0.0000
     atom:   52    charge:    2.7506    magn:    0.0029    constr:    0.0000
     atom:   53    charge:    2.7568    magn:    0.0000    constr:    0.0000
     atom:   54    charge:    2.7585    magn:    0.0001    constr:    0.0000
     atom:   55    charge:    2.7556    magn:   -0.0000    constr:    0.0000
     atom:   56    charge:    2.7565    magn:   -0.0001    constr:    0.0000
     atom:   57    charge:    2.7555    magn:    0.0003    constr:    0.0000
     atom:   58    charge:    2.7551    magn:    0.0040    constr:    0.0000
     atom:   59    charge:    2.7524    magn:    0.0066    constr:    0.0000
     atom:   60    charge:    2.7468    magn:    0.0125    constr:    0.0000
     atom:   61    charge:    2.7586    magn:    0.0012    constr:    0.0000
     atom:   62    charge:    2.7557    magn:   -0.0001    constr:    0.0000
     atom:   63    charge:    2.7556    magn:   -0.0000    constr:    0.0000
     atom:   64    charge:    2.7573    magn:    0.0000    constr:    0.0000
     atom:   65    charge:    2.7571    magn:    0.0003    constr:    0.0000
     atom:   66    charge:    2.7566    magn:    0.0161    constr:    0.0000
     atom:   67    charge:    1.6543    magn:    0.1194    constr:    0.0000
     atom:   68    charge:    2.7684    magn:   -0.0023    constr:    0.0000
     atom:   69    charge:    2.7586    magn:    0.0012    constr:    0.0000
     atom:   70    charge:    2.7585    magn:    0.0001    constr:    0.0000
     atom:   71    charge:    2.7568    magn:   -0.0000    constr:    0.0000
     atom:   72    charge:    2.7569    magn:    0.0002    constr:    0.0000
     atom:   73    charge:    2.7529    magn:    0.0013    constr:    0.0000
     atom:   74    charge:    2.7366    magn:   -0.0028    constr:    0.0000
     atom:   75    charge:    1.6542    magn:    0.1187    constr:    0.0000
     atom:   76    charge:    2.7468    magn:    0.0124    constr:    0.0000
     atom:   77    charge:    2.7568    magn:    0.0000    constr:    0.0000
     atom:   78    charge:    2.7538    magn:    0.0001    constr:    0.0000
     atom:   79    charge:    2.7557    magn:   -0.0000    constr:    0.0000
     atom:   80    charge:    2.7564    magn:   -0.0001    constr:    0.0000
     atom:   81    charge:    2.7529    magn:    0.0013    constr:    0.0000
     atom:   82    charge:    2.7566    magn:    0.0161    constr:    0.0000
     atom:   83    charge:    2.7525    magn:    0.0065    constr:    0.0000
     atom:   84    charge:    2.7506    magn:    0.0029    constr:    0.0000
     atom:   85    charge:    2.7541    magn:    0.0004    constr:    0.0000
     atom:   86    charge:    2.7518    magn:   -0.0001    constr:    0.0000
     atom:   87    charge:    2.7557    magn:   -0.0000    constr:    0.0000
     atom:   88    charge:    2.7569    magn:    0.0002    constr:    0.0000
     atom:   89    charge:    2.7571    magn:    0.0003    constr:    0.0000
     atom:   90    charge:    2.7551    magn:    0.0040    constr:    0.0000
     atom:   91    charge:    2.7566    magn:   -0.0001    constr:    0.0000
     atom:   92    charge:    2.7559    magn:   -0.0001    constr:    0.0000
     atom:   93    charge:    2.7541    magn:    0.0004    constr:    0.0000
     atom:   94    charge:    2.7538    magn:    0.0001    constr:    0.0000
     atom:   95    charge:    2.7568    magn:   -0.0000    constr:    0.0000
     atom:   96    charge:    2.7573    magn:    0.0000    constr:    0.0000
     atom:   97    charge:    2.7556    magn:    0.0003    constr:    0.0000
     atom:   98    charge:    2.7553    magn:    0.0005    constr:    0.0000

     total cpu time spent up to now is      295.8 secs

     End of self-consistent calculation

 ------ SPIN UP ------------


          k = 0.0000 0.0000 0.0000 ( 50142 PWs)   bands (ev):

   -21.8695 -21.6610 -21.4866 -21.4785 -21.4602 -21.4072 -21.3551 -20.9457
   -20.7539 -20.7371 -20.7357 -20.6535 -20.6416 -20.5210 -20.4019 -20.3942
   -20.3724 -20.2397 -20.2268 -19.6950 -19.5155 -19.5128 -19.5096 -19.4983
   -19.4964 -19.4884 -19.4881 -19.4560 -19.4391 -19.2885 -19.2813 -19.1518
   -19.1009 -19.1007 -19.0712 -18.9073 -18.8997 -18.6796 -18.6700 -18.6588
   -18.6465 -18.5860 -18.5686 -18.5165 -18.4932 -18.4898 -18.4749 -17.1583
   -15.1743 -13.1838 -12.8306 -12.8241 -12.8128 -12.7803 -12.7736 -12.7081
   -12.6297 -12.5978 -12.5920 -12.5419 -12.4806 -12.2283 -12.1459 -12.1334
   -12.1104 -12.0566 -12.0341 -11.6139 -11.4910 -11.4743 -11.4611 -11.4543
   -11.4425 -11.4332 -11.4304 -11.3873 -11.3759 -11.1932 -11.1180 -10.9411
   -10.7847 -10.7730 -10.7398 -10.7313 -10.5767 -10.1400 -10.1092 -10.0740
   -10.0059  -9.9565  -9.8902  -9.4698  -9.4009  -9.3765  -9.3543  -9.3479
    -9.3477  -9.2939  -9.1183  -8.9988  -8.9859  -8.9672  -8.9668  -8.9529
    -8.9497  -8.9362  -8.9203  -8.9062  -8.8966  -8.8909  -8.8766  -8.8739
    -8.8493  -8.8416  -8.8253  -8.8211  -8.7861  -8.7431  -8.7349  -8.7344
    -8.5527  -8.5405  -8.2725  -8.2655  -8.2652  -8.2129  -8.1661  -7.9408
    -7.9361  -7.8448  -7.8301  -7.8283  -7.7556  -7.7544  -7.6148  -7.5601
    -7.5578  -7.5293  -7.5129  -7.5016  -7.4736  -7.4652  -7.4565  -7.4194
    -7.3615  -7.3560  -7.3481  -7.3352  -7.2892  -7.2716  -7.2404  -7.1058
    -7.0865  -7.0553  -7.0172  -6.8754  -6.7143  -6.5933  -6.2558  -6.2372
    -6.2182  -6.2064  -6.1590  -6.0826  -6.0788  -6.0767  -6.0710  -6.0632
    -6.0575  -6.0559  -6.0327  -6.0154  -5.9159  -5.8590  -5.8333  -5.7399
    -5.5341  -5.4653  -5.4607  -5.4437  -5.3795  -5.2763  -5.1612  -5.1600
    -4.8119  -4.7861  -4.7705  -4.7651  -4.7056  -4.6709  -4.5620  -4.5264
    -4.5243  -4.5170  -4.3846  -3.5858  -0.3450   0.0130   0.1092   0.2574
     0.2888   0.2914   0.2935   0.3076   0.3164   0.3619   0.6895   0.6923
     0.6996   0.7093   0.7118   0.7135   0.7186   0.7224   0.7254   0.7333
     0.7620   0.7884   0.8513   0.8720   0.8952   0.9001   0.9010   0.9017
     0.9113   0.9120   0.9181   0.9407   0.9457   1.1199   1.1999   1.2023
     1.2223   1.2293   1.2667   1.3231   1.5830   1.5861   1.5879   1.5967
     1.6040   1.6112   1.6612   1.9312   1.9337

 ------ SPIN DOWN ----------


          k = 0.0000 0.0000 0.0000 ( 50142 PWs)   bands (ev):

   -21.8641 -21.6576 -21.4844 -21.4770 -21.4594 -21.3993 -21.3474 -20.9428
   -20.7499 -20.7328 -20.7306 -20.6489 -20.6377 -20.5199 -20.3952 -20.3881
   -20.3690 -20.2274 -20.2171 -19.6879 -19.5116 -19.5114 -19.5075 -19.4965
   -19.4935 -19.4849 -19.4788 -19.4451 -19.4348 -19.2826 -19.2770 -19.1478
   -19.0968 -19.0959 -19.0668 -18.8973 -18.8909 -18.6729 -18.6665 -18.6535
   -18.6433 -18.5818 -18.5610 -18.5146 -18.4896 -18.4861 -18.4704 -17.0065
   -14.8828 -13.1414 -12.8286 -12.8201 -12.8103 -12.7772 -12.7718 -12.7042
   -12.6277 -12.5938 -12.5883 -12.5261 -12.4721 -12.2229 -12.1440 -12.1306
   -12.1056 -12.0448 -12.0257 -11.6037 -11.4850 -11.4703 -11.4594 -11.4528
   -11.4408 -11.4294 -11.4289 -11.3779 -11.3649 -11.1599 -11.0936 -10.9365
   -10.7828 -10.7711 -10.7301 -10.7263 -10.5634 -10.1356 -10.1047 -10.0685
    -9.9956  -9.9417  -9.8743  -9.4672  -9.3929  -9.3723  -9.3499  -9.3454
    -9.3325  -9.2897  -9.1155  -8.9946  -8.9818  -8.9654  -8.9642  -8.9508
    -8.9455  -8.9334  -8.9185  -8.8950  -8.8878  -8.8851  -8.8733  -8.8706
    -8.8446  -8.8375  -8.8230  -8.8068  -8.7638  -8.7311  -8.7173  -8.6745
    -8.5411  -8.5094  -8.2712  -8.2639  -8.2632  -8.1934  -8.1579  -7.9261
    -7.9210  -7.8353  -7.8209  -7.8173  -7.7333  -7.7213  -7.6083  -7.5587
    -7.5547  -7.5274  -7.5116  -7.5008  -7.4724  -7.4633  -7.4506  -7.4169
    -7.3471  -7.3424  -7.3404  -7.3254  -7.2724  -7.2106  -7.1968  -7.0893
    -7.0847  -7.0544  -6.9990  -6.8480  -6.6927  -6.5652  -6.2436  -6.2341
    -6.2162  -6.2037  -6.1431  -6.0764  -6.0736  -6.0698  -6.0592  -6.0591
    -6.0487  -6.0402  -6.0063  -6.0017  -5.8517  -5.8382  -5.7963  -5.7109
    -5.5222  -5.4559  -5.4485  -5.4350  -5.3077  -5.2230  -5.1002  -5.0864
    -4.7975  -4.7768  -4.7578  -4.7553  -4.6689  -4.6577  -4.5568  -4.5173
    -4.5150  -4.5088  -4.2092  -2.9107  -0.3441   0.0536   0.1471   0.2564
     0.2885   0.2912   0.2932   0.3072   0.3177   0.3692   0.6951   0.6982
     0.7090   0.7106   0.7114   0.7128   0.7243   0.7290   0.7377   0.7398
     0.7661   0.7963   0.8571   0.8826   0.8945   0.8991   0.8999   0.9068
     0.9102   0.9176   0.9291   0.9435   0.9930   1.1347   1.2120   1.2319
     1.2327   1.2675   1.3106   1.3256   1.5827   1.5860   1.5877   1.5967
     1.6078   1.6146   1.6625   1.9296   1.9338

     highest occupied, lowest unoccupied level (ev):    -3.5858   -2.9107

!    total energy              =   -1939.49259529 Ry
     Harris-Foulkes estimate   =   -1939.49259549 Ry
     estimated scf accuracy    <       0.00000080 Ry

     total magnetization       =     1.00 Bohr mag/cell
     absolute magnetization    =     1.23 Bohr mag/cell

     convergence has been achieved in  12 iterations

     Using ACE for calculation of exact exchange

     EXX grid:   401512 G-vectors     FFT dimensions: ( 120, 120, 135)

     negative rho (up, down):  1.976E+00 5.092E-03

     EXX: now go back to refine exchange calculation

     total cpu time spent up to now is     6879.2 secs

     Self-consistent Calculation

     iteration #  1     ecut=    30.00 Ry     beta= 0.70
     CG style diagonalization
     c_bands:  1 eigenvalues not converged
     ethr =  1.42E-09,  avg # of iterations = 25.4

     negative rho (up, down):  2.045E+00 5.507E-03

     total cpu time spent up to now is     7070.4 secs

     total energy              =   -1724.44783224 Ry
     Harris-Foulkes estimate   =   -1724.54507146 Ry
     estimated scf accuracy    <       0.13265207 Ry

     total magnetization       =     1.00 Bohr mag/cell
     absolute magnetization    =     1.33 Bohr mag/cell

     iteration #  2     ecut=    30.00 Ry     beta= 0.70
     CG style diagonalization
     ethr =  3.39E-05,  avg # of iterations =  4.7

     negative rho (up, down):  2.045E+00 5.383E-03

     total cpu time spent up to now is     7101.1 secs

     total energy              =   -1715.11161734 Ry
     Harris-Foulkes estimate   =   -1715.27759946 Ry
     estimated scf accuracy    <       0.47340202 Ry

     total magnetization       =     1.00 Bohr mag/cell
     absolute magnetization    =     1.33 Bohr mag/cell

     iteration #  3     ecut=    30.00 Ry     beta= 0.70
     CG style diagonalization
     ethr =  3.39E-05,  avg # of iterations =  3.8

     negative rho (up, down):  2.074E+00 5.301E-03

     total cpu time spent up to now is     7124.7 secs

     total energy              =   -1715.04902214 Ry
     Harris-Foulkes estimate   =   -1715.13809086 Ry
     estimated scf accuracy    <       0.11522300 Ry

     total magnetization       =     1.00 Bohr mag/cell
     absolute magnetization    =     1.33 Bohr mag/cell

     iteration #  4     ecut=    30.00 Ry     beta= 0.70
     CG style diagonalization
     ethr =  2.95E-05,  avg # of iterations =  3.8

     negative rho (up, down):  2.069E+00 5.347E-03

     total cpu time spent up to now is     7148.4 secs

     total energy              =   -1715.09296596 Ry
     Harris-Foulkes estimate   =   -1715.11406755 Ry
     estimated scf accuracy    <       0.05187487 Ry

     total magnetization       =     1.00 Bohr mag/cell
     absolute magnetization    =     1.34 Bohr mag/cell

     iteration #  5     ecut=    30.00 Ry     beta= 0.70
     CG style diagonalization
     ethr =  1.33E-05,  avg # of iterations =  3.1

     negative rho (up, down):  2.067E+00 5.364E-03

     total cpu time spent up to now is     7166.8 secs

     total energy              =   -1715.09093680 Ry
     Harris-Foulkes estimate   =   -1715.09678264 Ry
     estimated scf accuracy    <       0.01129457 Ry

     total magnetization       =     1.00 Bohr mag/cell
     absolute magnetization    =     1.34 Bohr mag/cell

     iteration #  6     ecut=    30.00 Ry     beta= 0.70
     CG style diagonalization
     ethr =  2.89E-06,  avg # of iterations =  3.8

     negative rho (up, down):  2.066E+00 5.360E-03

     total cpu time spent up to now is     7190.7 secs

     total energy              =   -1715.09324919 Ry
     Harris-Foulkes estimate   =   -1715.09334376 Ry
     estimated scf accuracy    <       0.00014176 Ry

     total magnetization       =     1.00 Bohr mag/cell
     absolute magnetization    =     1.34 Bohr mag/cell

     iteration #  7     ecut=    30.00 Ry     beta= 0.70
     CG style diagonalization
     c_bands:  1 eigenvalues not converged
     ethr =  3.63E-08,  avg # of iterations =  3.7

     negative rho (up, down):  2.066E+00 5.371E-03

     total cpu time spent up to now is     7213.5 secs

     total energy              =   -1715.09325629 Ry
     Harris-Foulkes estimate   =   -1715.09328006 Ry
     estimated scf accuracy    <       0.00001447 Ry

     total magnetization       =     1.00 Bohr mag/cell
     absolute magnetization    =     1.34 Bohr mag/cell

     iteration #  8     ecut=    30.00 Ry     beta= 0.70
     CG style diagonalization
     ethr =  3.70E-09,  avg # of iterations =  3.7

     negative rho (up, down):  2.065E+00 5.362E-03

     total cpu time spent up to now is     7236.9 secs

     total energy              =   -1715.09324998 Ry
     Harris-Foulkes estimate   =   -1715.09325902 Ry
     estimated scf accuracy    <       0.00000485 Ry

     total magnetization       =     1.00 Bohr mag/cell
     absolute magnetization    =     1.34 Bohr mag/cell

     iteration #  9     ecut=    30.00 Ry     beta= 0.70
     CG style diagonalization
     ethr =  1.24E-09,  avg # of iterations =  3.8

     negative rho (up, down):  2.065E+00 5.360E-03
 
     Magnetic moment per site:
     atom:    1    charge:    0.8234    magn:   -0.0001    constr:    0.0000
     atom:    2    charge:    0.8177    magn:    0.0002    constr:    0.0000
     atom:    3    charge:    0.8173    magn:    0.0005    constr:    0.0000
     atom:    4    charge:    0.8212    magn:   -0.0000    constr:    0.0000
     atom:    5    charge:    0.8226    magn:    0.0000    constr:    0.0000
     atom:    6    charge:    0.8221    magn:    0.0000    constr:    0.0000
     atom:    7    charge:    0.8232    magn:   -0.0000    constr:    0.0000
     atom:    8    charge:    0.8219    magn:   -0.0000    constr:    0.0000
     atom:    9    charge:    0.8222    magn:   -0.0004    constr:    0.0000
     atom:   10    charge:    0.8098    magn:    0.0025    constr:    0.0000
     atom:   11    charge:    0.8196    magn:    0.0003    constr:    0.0000
     atom:   12    charge:    0.8238    magn:    0.0000    constr:    0.0000
     atom:   13    charge:    0.8222    magn:    0.0000    constr:    0.0000
     atom:   14    charge:    0.8221    magn:    0.0000    constr:    0.0000
     atom:   15    charge:    0.8224    magn:   -0.0001    constr:    0.0000
     atom:   16    charge:    0.8258    magn:   -0.0001    constr:    0.0000
     atom:   17    charge:    0.8341    magn:    0.0019    constr:    0.0000
     atom:   18    charge:    0.8235    magn:    0.0067    constr:    0.0000
     atom:   19    charge:    0.8329    magn:   -0.0004    constr:    0.0000
     atom:   20    charge:    0.8238    magn:    0.0001    constr:    0.0000
     atom:   21    charge:    0.8225    magn:    0.0000    constr:    0.0000
     atom:   22    charge:    0.8199    magn:   -0.0000    constr:    0.0000
     atom:   23    charge:    0.8156    magn:    0.0002    constr:    0.0000
     atom:   24    charge:    0.8163    magn:   -0.0013    constr:    0.0000
     atom:   25    charge:    1.5918    magn:   -0.0390    constr:    0.0000
     atom:   26    charge:    0.8235    magn:    0.0068    constr:    0.0000
     atom:   27    charge:    0.8196    magn:    0.0003    constr:    0.0000
     atom:   28    charge:    0.8212    magn:    0.0000    constr:    0.0000
     atom:   29    charge:    0.8193    magn:    0.0000    constr:    0.0000
     atom:   30    charge:    0.8190    magn:    0.0000    constr:    0.0000
     atom:   31    charge:    0.8191    magn:   -0.0004    constr:    0.0000
     atom:   32    charge:    0.8163    magn:   -0.0012    constr:    0.0000
     atom:   33    charge:    0.8341    magn:    0.0020    constr:    0.0000
     atom:   34    charge:    0.8098    magn:    0.0024    constr:    0.0000
     atom:   35    charge:    0.8173    magn:    0.0005    constr:    0.0000
     atom:   36    charge:    0.8186    magn:    0.0002    constr:    0.0000
     atom:   37    charge:    0.8178    magn:   -0.0000    constr:    0.0000
     atom:   38    charge:    0.8190    magn:    0.0000    constr:    0.0000
     atom:   39    charge:    0.8156    magn:    0.0001    constr:    0.0000
     atom:   40    charge:    0.8258    magn:   -0.0001    constr:    0.0000
     atom:   41    charge:    0.8221    magn:   -0.0004    constr:    0.0000
     atom:   42    charge:    0.8177    magn:    0.0002    constr:    0.0000
     atom:   43    charge:    0.8185    magn:   -0.0001    constr:    0.0000
     atom:   44    charge:    0.8186    magn:    0.0002    constr:    0.0000
     atom:   45    charge:    0.8193    magn:    0.0001    constr:    0.0000
     atom:   46    charge:    0.8198    magn:    0.0001    constr:    0.0000
     atom:   47    charge:    0.8224    magn:   -0.0001    constr:    0.0000
     atom:   48    charge:    0.8219    magn:    0.0000    constr:    0.0000
     atom:   49    charge:    0.8234    magn:   -0.0000    constr:    0.0000
     atom:   50    charge:    2.7305    magn:    0.0004    constr:    0.0000
     atom:   51    charge:    2.7318    magn:   -0.0002    constr:    0.0000
     atom:   52    charge:    2.7259    magn:    0.0021    constr:    0.0000
     atom:   53    charge:    2.7321    magn:   -0.0001    constr:    0.0000
     atom:   54    charge:    2.7338    magn:    0.0001    constr:    0.0000
     atom:   55    charge:    2.7308    magn:   -0.0001    constr:    0.0000
     atom:   56    charge:    2.7317    magn:    0.0000    constr:    0.0000
     atom:   57    charge:    2.7308    magn:    0.0002    constr:    0.0000
     atom:   58    charge:    2.7304    magn:    0.0033    constr:    0.0000
     atom:   59    charge:    2.7276    magn:    0.0065    constr:    0.0000
     atom:   60    charge:    2.7220    magn:    0.0115    constr:    0.0000
     atom:   61    charge:    2.7340    magn:    0.0009    constr:    0.0000
     atom:   62    charge:    2.7310    magn:   -0.0001    constr:    0.0000
     atom:   63    charge:    2.7308    magn:    0.0000    constr:    0.0000
     atom:   64    charge:    2.7327    magn:    0.0000    constr:    0.0000
     atom:   65    charge:    2.7325    magn:    0.0003    constr:    0.0000
     atom:   66    charge:    2.7320    magn:    0.0154    constr:    0.0000
     atom:   67    charge:    1.6256    magn:    0.1299    constr:    0.0000
     atom:   68    charge:    2.7437    magn:   -0.0027    constr:    0.0000
     atom:   69    charge:    2.7339    magn:    0.0008    constr:    0.0000
     atom:   70    charge:    2.7338    magn:   -0.0000    constr:    0.0000
     atom:   71    charge:    2.7321    magn:    0.0000    constr:    0.0000
     atom:   72    charge:    2.7321    magn:    0.0000    constr:    0.0000
     atom:   73    charge:    2.7282    magn:    0.0009    constr:    0.0000
     atom:   74    charge:    2.7107    magn:   -0.0044    constr:    0.0000
     atom:   75    charge:    1.6256    magn:    0.1295    constr:    0.0000
     atom:   76    charge:    2.7220    magn:    0.0114    constr:    0.0000
     atom:   77    charge:    2.7321    magn:   -0.0000    constr:    0.0000
     atom:   78    charge:    2.7290    magn:   -0.0000    constr:    0.0000
     atom:   79    charge:    2.7309    magn:   -0.0001    constr:    0.0000
     atom:   80    charge:    2.7316    magn:   -0.0001    constr:    0.0000
     atom:   81    charge:    2.7282    magn:    0.0008    constr:    0.0000
     atom:   82    charge:    2.7319    magn:    0.0154    constr:    0.0000
     atom:   83    charge:    2.7276    magn:    0.0063    constr:    0.0000
     atom:   84    charge:    2.7259    magn:    0.0022    constr:    0.0000
     atom:   85    charge:    2.7293    magn:    0.0003    constr:    0.0000
     atom:   86    charge:    2.7269    magn:   -0.0001    constr:    0.0000
     atom:   87    charge:    2.7309    magn:   -0.0000    constr:    0.0000
     atom:   88    charge:    2.7321    magn:    0.0000    constr:    0.0000
     atom:   89    charge:    2.7324    magn:    0.0003    constr:    0.0000
     atom:   90    charge:    2.7304    magn:    0.0033    constr:    0.0000
     atom:   91    charge:    2.7318    magn:   -0.0001    constr:    0.0000
     atom:   92    charge:    2.7311    magn:   -0.0000    constr:    0.0000
     atom:   93    charge:    2.7293    magn:    0.0002    constr:    0.0000
     atom:   94    charge:    2.7290    magn:    0.0000    constr:    0.0000
     atom:   95    charge:    2.7321    magn:   -0.0000    constr:    0.0000
     atom:   96    charge:    2.7327    magn:   -0.0000    constr:    0.0000
     atom:   97    charge:    2.7308    magn:    0.0001    constr:    0.0000
     atom:   98    charge:    2.7305    magn:    0.0003    constr:    0.0000

     total cpu time spent up to now is     7260.5 secs

     End of self-consistent calculation

 ------ SPIN UP ------------


          k = 0.0000 0.0000 0.0000 ( 50142 PWs)   bands (ev):

   -25.1383 -24.9039 -24.7118 -24.7029 -24.6827 -24.6308 -24.5770 -24.1137
   -23.9005 -23.8831 -23.8830 -23.7921 -23.7779 -23.6399 -23.5105 -23.5002
   -23.4848 -23.3408 -23.3265 -22.7286 -22.5240 -22.5191 -22.5141 -22.5036
   -22.5021 -22.4979 -22.4941 -22.4679 -22.4501 -22.2753 -22.2670 -22.1191
   -22.0633 -22.0605 -22.0382 -21.8509 -21.8469 -21.5965 -21.5807 -21.5718
   -21.5594 -21.4900 -21.4766 -21.4095 -21.3875 -21.3846 -21.3733 -20.0198
   -17.8979 -15.5173 -15.1030 -15.0993 -15.0864 -15.0497 -15.0406 -14.9637
   -14.8781 -14.8443 -14.8434 -14.7915 -14.7316 -14.4380 -14.3538 -14.3447
   -14.3136 -14.2637 -14.2394 -13.7494 -13.6186 -13.5999 -13.5777 -13.5679
   -13.5590 -13.5512 -13.5477 -13.5136 -13.4911 -13.3015 -13.2306 -13.0034
   -12.8149 -12.8019 -12.7782 -12.7662 -12.6073 -12.1046 -12.0735 -12.0391
   -11.9607 -11.9134 -11.8462 -11.3763 -11.3073 -11.2771 -11.2767 -11.2503
   -11.2425 -11.1815 -10.9758 -10.8536 -10.8421 -10.8108 -10.8046 -10.7942
   -10.7921 -10.7792 -10.7755 -10.7628 -10.7368 -10.7327 -10.7245 -10.7220
   -10.7026 -10.6943 -10.6762 -10.6654 -10.6393 -10.5941 -10.5835 -10.5677
   -10.3733 -10.3728 -10.0611 -10.0530 -10.0523 -10.0107  -9.9583  -9.7012
    -9.6688  -9.5559  -9.5410  -9.5400  -9.4616  -9.4595  -9.3191  -9.2585
    -9.2580  -9.2217  -9.2033  -9.1940  -9.1696  -9.1612  -9.1191  -9.1091
    -9.0325  -9.0025  -8.9951  -8.9835  -8.9784  -8.9086  -8.8744  -8.7652
    -8.7186  -8.6843  -8.6614  -8.5092  -8.3330  -8.2148  -7.7970  -7.7734
    -7.7666  -7.7258  -7.7249  -7.5296  -7.5262  -7.5229  -7.5157  -7.5061
    -7.5035  -7.5006  -7.4848  -7.4628  -7.3930  -7.3461  -7.2771  -7.2518
    -6.9098  -6.8320  -6.8288  -6.8123  -6.7403  -6.6757  -6.6537  -6.6209
    -6.0942  -6.0640  -6.0496  -6.0439  -5.9728  -5.9284  -5.7917  -5.7589
    -5.7550  -5.7472  -5.5907  -4.6566  -0.0059   0.3391   0.5548   0.6332
     0.6354   0.6371   0.6464   0.6522   0.6759   0.8310   0.9736   0.9755
     0.9769   0.9860   0.9911   1.0547   1.1955   1.1986   1.2003   1.2088
     1.2149   1.2389   1.6317   1.6806   1.6860   1.6900   1.7043   1.7075
     1.8007   1.9036   1.9216   1.9356   1.9377   1.9385   1.9428   1.9464
     1.9510   1.9559   1.9612   1.9686   2.0048   2.1338   2.2066   2.2148
     2.2291   2.2451   2.2522   2.2547   2.2794

 ------ SPIN DOWN ----------


          k = 0.0000 0.0000 0.0000 ( 50142 PWs)   bands (ev):

   -25.1309 -24.8995 -24.7087 -24.7009 -24.6816 -24.6191 -24.5654 -24.1106
   -23.8950 -23.8791 -23.8733 -23.7849 -23.7719 -23.6387 -23.5014 -23.4921
   -23.4800 -23.3230 -23.3121 -22.7188 -22.5177 -22.5168 -22.5112 -22.4998
   -22.4962 -22.4891 -22.4876 -22.4521 -22.4438 -22.2666 -22.2605 -22.1124
   -22.0568 -22.0552 -22.0318 -21.8364 -21.8329 -21.5867 -21.5757 -21.5639
   -21.5541 -21.4844 -21.4657 -21.4071 -21.3827 -21.3798 -21.3675 -19.8018
   -17.4349 -15.4583 -15.1008 -15.0942 -15.0834 -15.0448 -15.0379 -14.9590
   -14.8760 -14.8393 -14.8386 -14.7697 -14.7203 -14.4313 -14.3516 -14.3416
   -14.3075 -14.2466 -14.2283 -13.7353 -13.6120 -13.5947 -13.5759 -13.5664
   -13.5567 -13.5476 -13.5465 -13.5020 -13.4764 -13.2544 -13.1961 -12.9978
   -12.8127 -12.7998 -12.7672 -12.7601 -12.5906 -12.1000 -12.0685 -12.0323
   -11.9468 -11.8941 -11.8254 -11.3737 -11.2972 -11.2718 -11.2495 -11.2446
   -11.2398 -11.1762 -10.9731 -10.8480 -10.8375 -10.8079 -10.8029 -10.7919
   -10.7879 -10.7764 -10.7610 -10.7367 -10.7353 -10.7300 -10.7210 -10.7178
   -10.6938 -10.6873 -10.6726 -10.6486 -10.5965 -10.5688 -10.5451 -10.4836
   -10.3581 -10.3317 -10.0596 -10.0510 -10.0499  -9.9874  -9.9483  -9.6815
    -9.6414  -9.5399  -9.5267  -9.5137  -9.4172  -9.3973  -9.3110  -9.2568
    -9.2545  -9.2194  -9.2021  -9.1932  -9.1686  -9.1594  -9.1166  -9.0990
    -9.0232  -8.9754  -8.9709  -8.9604  -8.9602  -8.7907  -8.7880  -8.7416
    -8.7166  -8.6835  -8.6463  -8.4752  -8.3076  -8.1786  -7.7937  -7.7712
    -7.7638  -7.7082  -7.6986  -7.5186  -7.5105  -7.5089  -7.4991  -7.4943
    -7.4844  -7.4684  -7.4311  -7.4272  -7.3663  -7.2380  -7.2265  -7.1750
    -6.8834  -6.8108  -6.8062  -6.7861  -6.5949  -6.5940  -6.5864  -6.5144
    -6.0584  -6.0406  -6.0224  -6.0202  -5.9017  -5.9016  -5.7823  -5.7400
    -5.7351  -5.7248  -5.1900  -2.2814  -0.0057   0.3393   0.5546   0.6330
     0.6350   0.6367   0.6457   0.6523   0.6790   0.9331   0.9734   0.9753
     0.9765   0.9857   0.9917   1.1468   1.1952   1.1981   1.1998   1.2080
     1.2153   1.2434   1.6343   1.6875   1.6944   1.7069   1.7361   1.7378
     1.8095   1.9104   1.9350   1.9366   1.9373   1.9380   1.9425   1.9484
     1.9524   1.9612   1.9938   2.0055   2.0445   2.1502   2.2279   2.2505
     2.2512   2.2528   2.2560   2.2683   2.2833

     highest occupied, lowest unoccupied level (ev):    -4.6566   -2.2814

!    total energy              =   -1715.09325183 Ry
     Harris-Foulkes estimate   =   -1715.09325089 Ry
     estimated scf accuracy    <       0.00000022 Ry

     total magnetization       =     1.00 Bohr mag/cell
     absolute magnetization    =     1.34 Bohr mag/cell

     convergence has been achieved in   9 iterations

     Using ACE for calculation of exact exchange

     total energy              =   -1715.13684857 Ry
     Harris-Foulkes estimate   =   -1715.13684763 Ry
     est. exchange err (dexx)  =       0.04359674 Ry
     - averaged Fock potential =     193.88233583 Ry
     + Fock energy (ACE)       =     -97.02476211 Ry

     EXX: now go back to refine exchange calculation

     total cpu time spent up to now is    13812.5 secs

     Self-consistent Calculation

     iteration #  1     ecut=    30.00 Ry     beta= 0.70
     CG style diagonalization
     ethr =  1.24E-09,  avg # of iterations = 14.7

     negative rho (up, down):  2.074E+00 5.491E-03

     total cpu time spent up to now is    13921.9 secs

     total energy              =   -1715.14322992 Ry
     Harris-Foulkes estimate   =   -1715.14382118 Ry
     estimated scf accuracy    <       0.00141946 Ry

     total magnetization       =     1.00 Bohr mag/cell
     absolute magnetization    =     1.37 Bohr mag/cell

     iteration #  2     ecut=    30.00 Ry     beta= 0.70
     CG style diagonalization
     ethr =  3.63E-07,  avg # of iterations =  3.5

     negative rho (up, down):  2.075E+00 5.495E-03

     total cpu time spent up to now is    13943.8 secs

     total energy              =   -1715.14341632 Ry
     Harris-Foulkes estimate   =   -1715.14343232 Ry
     estimated scf accuracy    <       0.00009400 Ry

     total magnetization       =     1.00 Bohr mag/cell
     absolute magnetization    =     1.38 Bohr mag/cell

     iteration #  3     ecut=    30.00 Ry     beta= 0.70
     CG style diagonalization
     ethr =  2.40E-08,  avg # of iterations =  3.8

     negative rho (up, down):  2.076E+00 5.514E-03

     total cpu time spent up to now is    13967.6 secs

     total energy              =   -1715.14344685 Ry
     Harris-Foulkes estimate   =   -1715.14344427 Ry
     estimated scf accuracy    <       0.00001725 Ry

     total magnetization       =     1.00 Bohr mag/cell
     absolute magnetization    =     1.38 Bohr mag/cell

     iteration #  4     ecut=    30.00 Ry     beta= 0.70
     CG style diagonalization
     ethr =  4.41E-09,  avg # of iterations =  3.7

     negative rho (up, down):  2.076E+00 5.525E-03
 
     Magnetic moment per site:
     atom:    1    charge:    0.8203    magn:   -0.0001    constr:    0.0000
     atom:    2    charge:    0.8145    magn:    0.0002    constr:    0.0000
     atom:    3    charge:    0.8142    magn:    0.0004    constr:    0.0000
     atom:    4    charge:    0.8181    magn:   -0.0000    constr:    0.0000
     atom:    5    charge:    0.8194    magn:    0.0000    constr:    0.0000
     atom:    6    charge:    0.8190    magn:    0.0000    constr:    0.0000
     atom:    7    charge:    0.8201    magn:   -0.0000    constr:    0.0000
     atom:    8    charge:    0.8187    magn:   -0.0000    constr:    0.0000
     atom:    9    charge:    0.8190    magn:   -0.0004    constr:    0.0000
     atom:   10    charge:    0.8067    magn:    0.0023    constr:    0.0000
     atom:   11    charge:    0.8165    magn:    0.0003    constr:    0.0000
     atom:   12    charge:    0.8206    magn:    0.0000    constr:    0.0000
     atom:   13    charge:    0.8191    magn:    0.0000    constr:    0.0000
     atom:   14    charge:    0.8190    magn:    0.0000    constr:    0.0000
     atom:   15    charge:    0.8193    magn:   -0.0001    constr:    0.0000
     atom:   16    charge:    0.8226    magn:   -0.0002    constr:    0.0000
     atom:   17    charge:    0.8313    magn:    0.0017    constr:    0.0000
     atom:   18    charge:    0.8207    magn:    0.0063    constr:    0.0000
     atom:   19    charge:    0.8298    magn:   -0.0004    constr:    0.0000
     atom:   20    charge:    0.8206    magn:    0.0000    constr:    0.0000
     atom:   21    charge:    0.8194    magn:    0.0000    constr:    0.0000
     atom:   22    charge:    0.8167    magn:    0.0000    constr:    0.0000
     atom:   23    charge:    0.8124    magn:    0.0001    constr:    0.0000
     atom:   24    charge:    0.8132    magn:   -0.0015    constr:    0.0000
     atom:   25    charge:    1.5883    magn:   -0.0467    constr:    0.0000
     atom:   26    charge:    0.8207    magn:    0.0063    constr:    0.0000
     atom:   27    charge:    0.8165    magn:    0.0003    constr:    0.0000
     atom:   28    charge:    0.8181    magn:   -0.0000    constr:    0.0000
     atom:   29    charge:    0.8161    magn:    0.0000    constr:    0.0000
     atom:   30    charge:    0.8158    magn:    0.0000    constr:    0.0000
     atom:   31    charge:    0.8160    magn:   -0.0004    constr:    0.0000
     atom:   32    charge:    0.8132    magn:   -0.0014    constr:    0.0000
     atom:   33    charge:    0.8313    magn:    0.0018    constr:    0.0000
     atom:   34    charge:    0.8067    magn:    0.0022    constr:    0.0000
     atom:   35    charge:    0.8142    magn:    0.0004    constr:    0.0000
     atom:   36    charge:    0.8155    magn:    0.0002    constr:    0.0000
     atom:   37    charge:    0.8147    magn:   -0.0000    constr:    0.0000
     atom:   38    charge:    0.8158    magn:    0.0000    constr:    0.0000
     atom:   39    charge:    0.8124    magn:    0.0001    constr:    0.0000
     atom:   40    charge:    0.8226    magn:   -0.0002    constr:    0.0000
     atom:   41    charge:    0.8190    magn:   -0.0004    constr:    0.0000
     atom:   42    charge:    0.8145    magn:    0.0002    constr:    0.0000
     atom:   43    charge:    0.8154    magn:   -0.0000    constr:    0.0000
     atom:   44    charge:    0.8155    magn:    0.0001    constr:    0.0000
     atom:   45    charge:    0.8161    magn:    0.0000    constr:    0.0000
     atom:   46    charge:    0.8167    magn:    0.0000    constr:    0.0000
     atom:   47    charge:    0.8193    magn:   -0.0001    constr:    0.0000
     atom:   48    charge:    0.8187    magn:   -0.0000    constr:    0.0000
     atom:   49    charge:    0.8203    magn:   -0.0000    constr:    0.0000
     atom:   50    charge:    2.7293    magn:    0.0003    constr:    0.0000
     atom:   51    charge:    2.7306    magn:   -0.0001    constr:    0.0000
     atom:   52    charge:    2.7246    magn:    0.0019    constr:    0.0000
     atom:   53    charge:    2.7309    magn:   -0.0000    constr:    0.0000
     atom:   54    charge:    2.7326    magn:    0.0001    constr:    0.0000
     atom:   55    charge:    2.7296    magn:   -0.0000    constr:    0.0000
     atom:   56    charge:    2.7305    magn:   -0.0000    constr:    0.0000
     atom:   57    charge:    2.7296    magn:    0.0002    constr:    0.0000
     atom:   58    charge:    2.7291    magn:    0.0030    constr:    0.0000
     atom:   59    charge:    2.7263    magn:    0.0064    constr:    0.0000
     atom:   60    charge:    2.7207    magn:    0.0108    constr:    0.0000
     atom:   61    charge:    2.7327    magn:    0.0008    constr:    0.0000
     atom:   62    charge:    2.7297    magn:   -0.0001    constr:    0.0000
     atom:   63    charge:    2.7296    magn:    0.0000    constr:    0.0000
     atom:   64    charge:    2.7314    magn:    0.0000    constr:    0.0000
     atom:   65    charge:    2.7312    magn:    0.0003    constr:    0.0000
     atom:   66    charge:    2.7306    magn:    0.0149    constr:    0.0000
     atom:   67    charge:    1.6244    magn:    0.1353    constr:    0.0000
     atom:   68    charge:    2.7424    magn:   -0.0025    constr:    0.0000
     atom:   69    charge:    2.7327    magn:    0.0008    constr:    0.0000
     atom:   70    charge:    2.7326    magn:    0.0000    constr:    0.0000
     atom:   71    charge:    2.7309    magn:   -0.0000    constr:    0.0000
     atom:   72    charge:    2.7309    magn:    0.0001    constr:    0.0000
     atom:   73    charge:    2.7269    magn:    0.0008    constr:    0.0000
     atom:   74    charge:    2.7093    magn:   -0.0051    constr:    0.0000
     atom:   75    charge:    1.6244    magn:    0.1350    constr:    0.0000
     atom:   76    charge:    2.7207    magn:    0.0108    constr:    0.0000
     atom:   77    charge:    2.7309    magn:   -0.0000    constr:    0.0000
     atom:   78    charge:    2.7278    magn:   -0.0000    constr:    0.0000
     atom:   79    charge:    2.7297    magn:   -0.0000    constr:    0.0000
     atom:   80    charge:    2.7303    magn:   -0.0001    constr:    0.0000
     atom:   81    charge:    2.7269    magn:    0.0007    constr:    0.0000
     atom:   82    charge:    2.7306    magn:    0.0149    constr:    0.0000
     atom:   83    charge:    2.7263    magn:    0.0063    constr:    0.0000
     atom:   84    charge:    2.7246    magn:    0.0019    constr:    0.0000
     atom:   85    charge:    2.7280    magn:    0.0002    constr:    0.0000
     atom:   86    charge:    2.7257    magn:   -0.0001    constr:    0.0000
     atom:   87    charge:    2.7297    magn:   -0.0000    constr:    0.0000
     atom:   88    charge:    2.7309    magn:    0.0001    constr:    0.0000
     atom:   89    charge:    2.7312    magn:    0.0003    constr:    0.0000
     atom:   90    charge:    2.7291    magn:    0.0030    constr:    0.0000
     atom:   91    charge:    2.7306    magn:   -0.0001    constr:    0.0000
     atom:   92    charge:    2.7299    magn:   -0.0000    constr:    0.0000
     atom:   93    charge:    2.7281    magn:    0.0002    constr:    0.0000
     atom:   94    charge:    2.7278    magn:    0.0000    constr:    0.0000
     atom:   95    charge:    2.7309    magn:   -0.0000    constr:    0.0000
     atom:   96    charge:    2.7314    magn:   -0.0000    constr:    0.0000
     atom:   97    charge:    2.7296    magn:    0.0002    constr:    0.0000
     atom:   98    charge:    2.7293    magn:    0.0003    constr:    0.0000

     total cpu time spent up to now is    13990.2 secs

     End of self-consistent calculation

 ------ SPIN UP ------------


          k = 0.0000 0.0000 0.0000 ( 50142 PWs)   bands (ev):

   -25.1359 -24.9010 -24.7097 -24.7011 -24.6809 -24.6289 -24.5758 -24.1117
   -23.8986 -23.8817 -23.8809 -23.7910 -23.7769 -23.6386 -23.5088 -23.4984
   -23.4845 -23.3400 -23.3262 -22.7272 -22.5230 -22.5182 -22.5129 -22.5026
   -22.5011 -22.4971 -22.4934 -22.4672 -22.4502 -22.2751 -22.2668 -22.1184
   -22.0629 -22.0598 -22.0388 -21.8504 -21.8473 -21.5964 -21.5803 -21.5718
   -21.5596 -21.4901 -21.4770 -21.4096 -21.3876 -21.3849 -21.3739 -20.0294
   -17.9256 -15.5227 -15.1049 -15.1014 -15.0886 -15.0522 -15.0430 -14.9657
   -14.8796 -14.8458 -14.8455 -14.7936 -14.7348 -14.4444 -14.3617 -14.3528
   -14.3215 -14.2719 -14.2475 -13.7551 -13.6240 -13.6047 -13.5824 -13.5724
   -13.5638 -13.5563 -13.5527 -13.5199 -13.4965 -13.3082 -13.2382 -13.0082
   -12.8181 -12.8049 -12.7828 -12.7705 -12.6119 -12.1116 -12.0802 -12.0463
   -11.9680 -11.9213 -11.8550 -11.3890 -11.3206 -11.2901 -11.2770 -11.2632
   -11.2551 -11.1944 -10.9886 -10.8661 -10.8553 -10.8225 -10.8153 -10.8063
   -10.8040 -10.7917 -10.7758 -10.7738 -10.7499 -10.7458 -10.7381 -10.7358
   -10.7030 -10.6950 -10.6783 -10.6770 -10.6403 -10.5991 -10.5971 -10.5814
   -10.3896 -10.3887 -10.0812 -10.0734 -10.0725 -10.0316  -9.9796  -9.7223
    -9.6679  -9.5577  -9.5433  -9.5429  -9.4660  -9.4636  -9.3383  -9.2769
    -9.2759  -9.2405  -9.2220  -9.2133  -9.1901  -9.1820  -9.1407  -9.1118
    -9.0530  -9.0066  -9.0062  -8.9990  -8.9843  -8.9154  -8.8814  -8.7856
    -8.7352  -8.7011  -8.6796  -8.5282  -8.3538  -8.2387  -7.8213  -7.7975
    -7.7909  -7.7506  -7.7319  -7.5416  -7.5381  -7.5347  -7.5274  -7.5183
    -7.5159  -7.5130  -7.4979  -7.4769  -7.4202  -7.3610  -7.3055  -7.2683
    -6.9273  -6.8513  -6.8488  -6.8333  -6.7616  -6.7086  -6.6860  -6.6447
    -6.1227  -6.0931  -6.0792  -6.0737  -6.0042  -5.9603  -5.8249  -5.7930
    -5.7886  -5.7811  -5.6289  -4.7241  -0.0048   0.3380   0.5567   0.6341
     0.6363   0.6379   0.6469   0.6524   0.6753   0.8698   0.9723   0.9742
     0.9755   0.9844   0.9893   1.0647   1.1971   1.2002   1.2018   1.2101
     1.2159   1.2393   1.6317   1.7174   1.7224   1.7263   1.7389   1.7419
     1.8396   1.9356   1.9376   1.9384   1.9426   1.9459   1.9466   1.9506
     1.9636   1.9972   1.9998   2.0068   2.0089   2.1610   2.2299   2.2351
     2.2507   2.2516   2.2554   2.2704   2.2748

 ------ SPIN DOWN ----------


          k = 0.0000 0.0000 0.0000 ( 50142 PWs)   bands (ev):

   -25.1305 -24.9007 -24.7070 -24.6994 -24.6802 -24.6183 -24.5655 -24.1112
   -23.8938 -23.8783 -23.8723 -23.7842 -23.7713 -23.6381 -23.5005 -23.4913
   -23.4802 -23.3229 -23.3125 -22.7196 -22.5173 -22.5163 -22.5106 -22.4992
   -22.4960 -22.4890 -22.4880 -22.4528 -22.4447 -22.2670 -22.2607 -22.1127
   -22.0571 -22.0554 -22.0332 -21.8367 -21.8337 -21.5874 -21.5762 -21.5648
   -21.5551 -21.4850 -21.4670 -21.4077 -21.3835 -21.3806 -21.3689 -19.8088
   -17.4288 -15.4635 -15.1032 -15.0967 -15.0861 -15.0472 -15.0404 -14.9613
   -14.8778 -14.8410 -14.8410 -14.7714 -14.7234 -14.4382 -14.3598 -14.3501
   -14.3155 -14.2541 -14.2363 -13.7411 -13.6184 -13.6000 -13.5809 -13.5712
   -13.5618 -13.5533 -13.5519 -13.5087 -13.4817 -13.2588 -13.2015 -13.0035
   -12.8161 -12.8031 -12.7722 -12.7646 -12.5953 -12.1077 -12.0760 -12.0399
   -11.9538 -11.9014 -11.8331 -11.3869 -11.3107 -11.2851 -11.2574 -11.2526
   -11.2510 -11.1892 -10.9866 -10.8607 -10.8514 -10.8198 -10.8139 -10.8042
   -10.8003 -10.7892 -10.7742 -10.7487 -10.7435 -10.7415 -10.7350 -10.7317
   -10.6955 -10.6893 -10.6744 -10.6614 -10.6001 -10.5843 -10.5580 -10.4869
   -10.3738 -10.3454 -10.0799 -10.0714 -10.0703 -10.0077  -9.9696  -9.7018
    -9.6508  -9.5440  -9.5316  -9.5195  -9.4215  -9.4011  -9.3306  -9.2751
    -9.2731  -9.2384  -9.2209  -9.2125  -9.1893  -9.1805  -9.1385  -9.1074
    -9.0438  -8.9823  -8.9820  -8.9781  -8.9681  -8.7954  -8.7938  -8.7612
    -8.7336  -8.7006  -8.6653  -8.4927  -8.3269  -8.2007  -7.8183  -7.7954
    -7.7884  -7.7341  -7.7206  -7.5323  -7.5246  -7.5231  -7.5128  -7.5092
    -7.4995  -7.4844  -7.4501  -7.4481  -7.3919  -7.2641  -7.2417  -7.1921
    -6.9068  -6.8351  -6.8293  -6.8114  -6.6230  -6.6159  -6.6153  -6.5376
    -6.0926  -6.0751  -6.0561  -6.0539  -5.9353  -5.9345  -5.8185  -5.7774
    -5.7724  -5.7631  -5.2160  -2.1833  -0.0048   0.3378   0.5565   0.6338
     0.6359   0.6374   0.6462   0.6525   0.6783   0.9347   0.9721   0.9739
     0.9751   0.9840   0.9899   1.1573   1.1967   1.1996   1.2013   1.2092
     1.2163   1.2438   1.6345   1.7217   1.7293   1.7414   1.7707   1.7731
     1.8462   1.9350   1.9372   1.9378   1.9421   1.9479   1.9512   1.9519
     1.9770   2.0017   2.0077   2.0323   2.0781   2.1743   2.2471   2.2500
     2.2516   2.2551   2.2747   2.2920   2.3055

     highest occupied, lowest unoccupied level (ev):    -4.7241   -2.1833

!    total energy              =   -1715.14345178 Ry
     Harris-Foulkes estimate   =   -1715.14345115 Ry
     estimated scf accuracy    <       0.00000083 Ry

     total magnetization       =     1.00 Bohr mag/cell
     absolute magnetization    =     1.38 Bohr mag/cell

     convergence has been achieved in   4 iterations

     Using ACE for calculation of exact exchange

     total energy              =   -1715.14467136 Ry
     Harris-Foulkes estimate   =   -1715.14467074 Ry
[...]
   -17.4113 -15.4584 -15.0993 -15.0924 -15.0822 -15.0430 -15.0361 -14.9571
   -14.8733 -14.8367 -14.8365 -14.7666 -14.7193 -14.4350 -14.3570 -14.3475
   -14.3126 -14.2507 -14.2332 -13.7370 -13.6146 -13.5959 -13.5772 -13.5674
   -13.5582 -13.5497 -13.5483 -13.5052 -13.4776 -13.2532 -13.1971 -13.0000
   -12.8118 -12.7988 -12.7681 -12.7604 -12.5912 -12.1039 -12.0726 -12.0363
   -11.9499 -11.8972 -11.8291 -11.3846 -11.3085 -11.2829 -11.2552 -11.2504
   -11.2479 -11.1870 -10.9840 -10.8578 -10.8495 -10.8172 -10.8112 -10.8018
   -10.7980 -10.7869 -10.7721 -10.7468 -10.7414 -10.7403 -10.7330 -10.7298
   -10.6925 -10.6864 -10.6714 -10.6585 -10.5981 -10.5821 -10.5552 -10.4847
   -10.3719 -10.3422 -10.0791 -10.0708 -10.0697 -10.0064  -9.9691  -9.7008
    -9.6520  -9.5422  -9.5298  -9.5187  -9.4194  -9.3989  -9.3292  -9.2738
    -9.2717  -9.2370  -9.2196  -9.2115  -9.1886  -9.1799  -9.1381  -9.1076
    -9.0429  -8.9819  -8.9809  -8.9779  -8.9670  -8.7938  -8.7924  -8.7591
    -8.7317  -8.6988  -8.6632  -8.4904  -8.3248  -8.1991  -7.8178  -7.7948
    -7.7880  -7.7336  -7.7269  -7.5338  -7.5265  -7.5250  -7.5144  -7.5111
    -7.5017  -7.4873  -7.4530  -7.4531  -7.3909  -7.2630  -7.2439  -7.1940
    -6.9119  -6.8401  -6.8338  -6.8166  -6.6209  -6.6205  -6.6135  -6.5420
    -6.1014  -6.0837  -6.0643  -6.0618  -5.9440  -5.9424  -5.8273  -5.7868
    -5.7818  -5.7730  -5.2211  -2.1308  -0.0048   0.3371   0.5567   0.6338
     0.6359   0.6373   0.6460   0.6522   0.6780   0.9326   0.9716   0.9734
     0.9745   0.9833   0.9891   1.1578   1.1970   1.1998   1.2014   1.2093
     1.2163   1.2438   1.6344   1.7345   1.7421   1.7541   1.7840   1.7863
     1.8593   1.9348   1.9370   1.9376   1.9419   1.9477   1.9517   1.9659
     1.9916   2.0081   2.0165   2.0464   2.0913   2.1832   2.2494   2.2511
     2.2544   2.2549   2.2836   2.3016   2.3150

     highest occupied, lowest unoccupied level (ev):    -4.7575   -2.1308

!    total energy              =   -1715.14513538 Ry
     Harris-Foulkes estimate   =   -1715.14513186 Ry
     estimated scf accuracy    <       0.00000065 Ry

     total magnetization       =     1.00 Bohr mag/cell
     absolute magnetization    =     1.41 Bohr mag/cell

     convergence has been achieved in   1 iterations

     Using ACE for calculation of exact exchange

     total energy              =   -1715.14513688 Ry
     Harris-Foulkes estimate   =   -1715.14513336 Ry
     est. exchange err (dexx)  =       0.00000150 Ry
     - averaged Fock potential =     194.17696728 Ry
     + Fock energy (ACE)       =     -97.08932061 Ry

     EXX: now go back to refine exchange calculation

     total cpu time spent up to now is    40392.5 secs

     Self-consistent Calculation

     iteration #  1     ecut=    30.00 Ry     beta= 0.70
     CG style diagonalization
     c_bands:  1 eigenvalues not converged
     c_bands:  1 eigenvalues not converged
     ethr =  3.71E-10,  avg # of iterations =  4.6

     negative rho (up, down):  2.078E+00 5.672E-03
 
     Magnetic moment per site:
     atom:    1    charge:    0.8198    magn:   -0.0000    constr:    0.0000
     atom:    2    charge:    0.8140    magn:    0.0002    constr:    0.0000
     atom:    3    charge:    0.8136    magn:    0.0004    constr:    0.0000
     atom:    4    charge:    0.8175    magn:   -0.0000    constr:    0.0000
     atom:    5    charge:    0.8189    magn:    0.0000    constr:    0.0000
     atom:    6    charge:    0.8185    magn:    0.0000    constr:    0.0000
     atom:    7    charge:    0.8196    magn:   -0.0000    constr:    0.0000
     atom:    8    charge:    0.8182    magn:    0.0000    constr:    0.0000
     atom:    9    charge:    0.8185    magn:   -0.0003    constr:    0.0000
     atom:   10    charge:    0.8061    magn:    0.0022    constr:    0.0000
     atom:   11    charge:    0.8159    magn:    0.0003    constr:    0.0000
     atom:   12    charge:    0.8201    magn:    0.0000    constr:    0.0000
     atom:   13    charge:    0.8185    magn:   -0.0000    constr:    0.0000
     atom:   14    charge:    0.8185    magn:    0.0000    constr:    0.0000
     atom:   15    charge:    0.8187    magn:   -0.0001    constr:    0.0000
     atom:   16    charge:    0.8221    magn:   -0.0001    constr:    0.0000
     atom:   17    charge:    0.8309    magn:    0.0015    constr:    0.0000
     atom:   18    charge:    0.8202    magn:    0.0059    constr:    0.0000
     atom:   19    charge:    0.8293    magn:   -0.0004    constr:    0.0000
     atom:   20    charge:    0.8201    magn:    0.0000    constr:    0.0000
     atom:   21    charge:    0.8189    magn:    0.0000    constr:    0.0000
     atom:   22    charge:    0.8162    magn:    0.0000    constr:    0.0000
     atom:   23    charge:    0.8119    magn:    0.0001    constr:    0.0000
     atom:   24    charge:    0.8126    magn:   -0.0016    constr:    0.0000
     atom:   25    charge:    1.5880    magn:   -0.0544    constr:    0.0000
     atom:   26    charge:    0.8203    magn:    0.0059    constr:    0.0000
     atom:   27    charge:    0.8159    magn:    0.0003    constr:    0.0000
     atom:   28    charge:    0.8175    magn:   -0.0000    constr:    0.0000
     atom:   29    charge:    0.8156    magn:    0.0000    constr:    0.0000
     atom:   30    charge:    0.8153    magn:   -0.0000    constr:    0.0000
     atom:   31    charge:    0.8155    magn:   -0.0004    constr:    0.0000
     atom:   32    charge:    0.8126    magn:   -0.0016    constr:    0.0000
     atom:   33    charge:    0.8309    magn:    0.0015    constr:    0.0000
     atom:   34    charge:    0.8062    magn:    0.0022    constr:    0.0000
     atom:   35    charge:    0.8136    magn:    0.0004    constr:    0.0000
     atom:   36    charge:    0.8150    magn:    0.0001    constr:    0.0000
     atom:   37    charge:    0.8142    magn:   -0.0000    constr:    0.0000
     atom:   38    charge:    0.8153    magn:   -0.0000    constr:    0.0000
     atom:   39    charge:    0.8119    magn:    0.0001    constr:    0.0000
     atom:   40    charge:    0.8221    magn:   -0.0001    constr:    0.0000
     atom:   41    charge:    0.8185    magn:   -0.0003    constr:    0.0000
     atom:   42    charge:    0.8140    magn:    0.0002    constr:    0.0000
     atom:   43    charge:    0.8149    magn:   -0.0000    constr:    0.0000
     atom:   44    charge:    0.8150    magn:    0.0001    constr:    0.0000
     atom:   45    charge:    0.8156    magn:    0.0000    constr:    0.0000
     atom:   46    charge:    0.8162    magn:    0.0000    constr:    0.0000
     atom:   47    charge:    0.8187    magn:   -0.0001    constr:    0.0000
     atom:   48    charge:    0.8182    magn:    0.0000    constr:    0.0000
     atom:   49    charge:    0.8198    magn:   -0.0000    constr:    0.0000
     atom:   50    charge:    2.7295    magn:    0.0003    constr:    0.0000
     atom:   51    charge:    2.7308    magn:   -0.0001    constr:    0.0000
     atom:   52    charge:    2.7248    magn:    0.0017    constr:    0.0000
     atom:   53    charge:    2.7311    magn:    0.0000    constr:    0.0000
     atom:   54    charge:    2.7328    magn:    0.0001    constr:    0.0000
     atom:   55    charge:    2.7298    magn:    0.0000    constr:    0.0000
     atom:   56    charge:    2.7306    magn:   -0.0000    constr:    0.0000
     atom:   57    charge:    2.7298    magn:    0.0002    constr:    0.0000
     atom:   58    charge:    2.7294    magn:    0.0027    constr:    0.0000
     atom:   59    charge:    2.7265    magn:    0.0064    constr:    0.0000
     atom:   60    charge:    2.7210    magn:    0.0103    constr:    0.0000
     atom:   61    charge:    2.7330    magn:    0.0007    constr:    0.0000
     atom:   62    charge:    2.7299    magn:   -0.0000    constr:    0.0000
     atom:   63    charge:    2.7298    magn:    0.0000    constr:    0.0000
     atom:   64    charge:    2.7316    magn:    0.0000    constr:    0.0000
     atom:   65    charge:    2.7314    magn:    0.0003    constr:    0.0000
     atom:   66    charge:    2.7310    magn:    0.0144    constr:    0.0000
     atom:   67    charge:    1.6247    magn:    0.1402    constr:    0.0000
     atom:   68    charge:    2.7426    magn:   -0.0017    constr:    0.0000
     atom:   69    charge:    2.7330    magn:    0.0007    constr:    0.0000
     atom:   70    charge:    2.7328    magn:    0.0001    constr:    0.0000
     atom:   71    charge:    2.7311    magn:   -0.0000    constr:    0.0000
     atom:   72    charge:    2.7311    magn:    0.0001    constr:    0.0000
     atom:   73    charge:    2.7272    magn:    0.0006    constr:    0.0000
     atom:   74    charge:    2.7095    magn:   -0.0054    constr:    0.0000
     atom:   75    charge:    1.6248    magn:    0.1401    constr:    0.0000
     atom:   76    charge:    2.7209    magn:    0.0103    constr:    0.0000
     atom:   77    charge:    2.7311    magn:    0.0000    constr:    0.0000
     atom:   78    charge:    2.7280    magn:    0.0000    constr:    0.0000
     atom:   79    charge:    2.7299    magn:   -0.0000    constr:    0.0000
     atom:   80    charge:    2.7305    magn:   -0.0001    constr:    0.0000
     atom:   81    charge:    2.7272    magn:    0.0006    constr:    0.0000
     atom:   82    charge:    2.7310    magn:    0.0144    constr:    0.0000
     atom:   83    charge:    2.7264    magn:    0.0064    constr:    0.0000
     atom:   84    charge:    2.7248    magn:    0.0017    constr:    0.0000
     atom:   85    charge:    2.7283    magn:    0.0002    constr:    0.0000
     atom:   86    charge:    2.7259    magn:   -0.0001    constr:    0.0000
     atom:   87    charge:    2.7299    magn:   -0.0000    constr:    0.0000
     atom:   88    charge:    2.7311    magn:    0.0001    constr:    0.0000
     atom:   89    charge:    2.7314    magn:    0.0003    constr:    0.0000
     atom:   90    charge:    2.7294    magn:    0.0027    constr:    0.0000
     atom:   91    charge:    2.7308    magn:   -0.0001    constr:    0.0000
     atom:   92    charge:    2.7301    magn:   -0.0000    constr:    0.0000
     atom:   93    charge:    2.7283    magn:    0.0002    constr:    0.0000
     atom:   94    charge:    2.7280    magn:    0.0000    constr:    0.0000
     atom:   95    charge:    2.7311    magn:   -0.0000    constr:    0.0000
     atom:   96    charge:    2.7316    magn:    0.0000    constr:    0.0000
     atom:   97    charge:    2.7298    magn:    0.0002    constr:    0.0000
     atom:   98    charge:    2.7295    magn:    0.0003    constr:    0.0000

     total cpu time spent up to now is    40430.0 secs

     End of self-consistent calculation

 ------ SPIN UP ------------


          k = 0.0000 0.0000 0.0000 ( 50142 PWs)   bands (ev):

   -25.1279 -24.8913 -24.7035 -24.6951 -24.6750 -24.6229 -24.5690 -24.1036
   -23.8926 -23.8758 -23.8747 -23.7849 -23.7707 -23.6323 -23.5026 -23.4922
   -23.4789 -23.3339 -23.3199 -22.7202 -22.5168 -22.5122 -22.5069 -22.4964
   -22.4952 -22.4913 -22.4874 -22.4609 -22.4446 -22.2691 -22.2611 -22.1123
   -22.0569 -22.0539 -22.0333 -21.8442 -21.8412 -21.5902 -21.5744 -21.5659
   -21.5537 -21.4841 -21.4710 -21.4036 -21.3817 -21.3790 -21.3682 -20.0195
   -17.9289 -15.5152 -15.1001 -15.0965 -15.0839 -15.0474 -15.0381 -14.9607
   -14.8743 -14.8408 -14.8405 -14.7886 -14.7301 -14.4404 -14.3581 -14.3495
   -14.3181 -14.2684 -14.2437 -13.7501 -13.6187 -13.5996 -13.5778 -13.5679
   -13.5594 -13.5519 -13.5484 -13.5154 -13.4918 -13.3041 -13.2343 -13.0031
   -12.8131 -12.7999 -12.7778 -12.7658 -12.6071 -12.1067 -12.0755 -12.0417
   -11.9637 -11.9170 -11.8512 -11.3855 -11.3173 -11.2868 -11.2721 -11.2605
   -11.2522 -11.1916 -10.9849 -10.8623 -10.8520 -10.8190 -10.8117 -10.8030
   -10.8007 -10.7885 -10.7731 -10.7656 -10.7473 -10.7430 -10.7353 -10.7330
   -10.6989 -10.6911 -10.6750 -10.6732 -10.6365 -10.5963 -10.5927 -10.5785
   -10.3875 -10.3865 -10.0796 -10.0721 -10.0712 -10.0300  -9.9783  -9.7208
    -9.6595  -9.5542  -9.5400  -9.5400  -9.4630  -9.4609  -9.3360  -9.2747
    -9.2736  -9.2385  -9.2200  -9.2115  -9.1887  -9.1805  -9.1394  -9.1068
    -9.0513  -9.0045  -9.0039  -8.9961  -8.9826  -8.9133  -8.8800  -8.7831
    -8.7324  -8.6985  -8.6767  -8.5260  -8.3521  -8.2375  -7.8199  -7.7962
    -7.7898  -7.7492  -7.7260  -7.5417  -7.5379  -7.5348  -7.5277  -7.5188
    -7.5162  -7.5133  -7.4981  -7.4783  -7.4196  -7.3620  -7.3050  -7.2710
    -6.9284  -6.8536  -6.8514  -6.8366  -6.7643  -6.7085  -6.6862  -6.6496
    -6.1275  -6.0988  -6.0851  -6.0796  -6.0105  -5.9672  -5.8318  -5.8007
    -5.7961  -5.7887  -5.6387  -4.7591  -0.0049   0.3376   0.5568   0.6341
     0.6362   0.6377   0.6467   0.6520   0.6749   0.8970   0.9718   0.9737
     0.9749   0.9838   0.9884   1.0765   1.1974   1.2003   1.2019   1.2101
     1.2159   1.2392   1.6314   1.7316   1.7362   1.7401   1.7526   1.7553
     1.8547   1.9354   1.9374   1.9381   1.9423   1.9456   1.9503   1.9629
     1.9792   2.0072   2.0126   2.0156   2.0240   2.1720   2.2398   2.2437
     2.2511   2.2530   2.2622   2.2661   2.2801

 ------ SPIN DOWN ----------


          k = 0.0000 0.0000 0.0000 ( 50142 PWs)   bands (ev):

   -25.1244 -24.8946 -24.7010 -24.6935 -24.6742 -24.6128 -24.5599 -24.1055
   -23.8882 -23.8726 -23.8667 -23.7783 -23.7655 -23.6323 -23.4949 -23.4858
   -23.4746 -23.3173 -23.3068 -22.7140 -22.5115 -22.5104 -22.5049 -22.4935
   -22.4903 -22.4833 -22.4826 -22.4475 -22.4391 -22.2614 -22.2550 -22.1070
   -22.0515 -22.0499 -22.0278 -21.8311 -21.8281 -21.5818 -21.5707 -21.5593
   -21.5494 -21.4793 -21.4615 -21.4019 -21.3779 -21.3749 -21.3635 -19.8001
   -17.4101 -15.4580 -15.0986 -15.0918 -15.0816 -15.0424 -15.0356 -14.9565
   -14.8727 -14.8362 -14.8359 -14.7659 -14.7187 -14.4344 -14.3564 -14.3469
   -14.3120 -14.2500 -14.2326 -13.7365 -13.6140 -13.5952 -13.5765 -13.5668
   -13.5576 -13.5491 -13.5476 -13.5045 -13.4769 -13.2525 -13.1964 -12.9993
   -12.8112 -12.7982 -12.7675 -12.7598 -12.5906 -12.1032 -12.0719 -12.0357
   -11.9492 -11.8965 -11.8284 -11.3839 -11.3079 -11.2822 -11.2545 -11.2498
   -11.2474 -11.1864 -10.9834 -10.8572 -10.8489 -10.8165 -10.8105 -10.8011
   -10.7972 -10.7862 -10.7714 -10.7462 -10.7407 -10.7400 -10.7323 -10.7290
   -10.6919 -10.6859 -10.6708 -10.6578 -10.5975 -10.5815 -10.5545 -10.4842
   -10.3713 -10.3415 -10.0784 -10.0702 -10.0690 -10.0056  -9.9684  -9.7000
    -9.6519  -9.5417  -9.5292  -9.5182  -9.4188  -9.3984  -9.3285  -9.2731
    -9.2709  -9.2363  -9.2190  -9.2108  -9.1879  -9.1792  -9.1373  -9.1073
    -9.0421  -8.9813  -8.9802  -8.9773  -8.9663  -8.7934  -8.7917  -8.7584
    -8.7309  -8.6981  -8.6625  -8.4895  -8.3241  -8.1984  -7.8170  -7.7941
    -7.7873  -7.7328  -7.7267  -7.5332  -7.5259  -7.5244  -7.5138  -7.5106
    -7.5012  -7.4867  -7.4524  -7.4525  -7.3901  -7.2622  -7.2434  -7.1934
    -6.9114  -6.8395  -6.8333  -6.8160  -6.6201  -6.6200  -6.6126  -6.5413
    -6.1008  -6.0831  -6.0637  -6.0612  -5.9434  -5.9418  -5.8268  -5.7862
    -5.7812  -5.7724  -5.2209  -2.1279  -0.0049   0.3371   0.5567   0.6338
     0.6358   0.6373   0.6460   0.6522   0.6779   0.9321   0.9716   0.9734
     0.9745   0.9833   0.9891   1.1573   1.1970   1.1998   1.2013   1.2093
     1.2162   1.2437   1.6344   1.7349   1.7426   1.7545   1.7844   1.7866
     1.8596   1.9348   1.9370   1.9375   1.9419   1.9477   1.9516   1.9663
     1.9920   2.0081   2.0169   2.0468   2.0917   2.1836   2.2494   2.2511
     2.2546   2.2549   2.2840   2.3019   2.3154

     highest occupied, lowest unoccupied level (ev):    -4.7591   -2.1279

!    total energy              =   -1715.14513784 Ry
     Harris-Foulkes estimate   =   -1715.14513787 Ry
     estimated scf accuracy    <       0.00000036 Ry

     total magnetization       =     1.00 Bohr mag/cell
     absolute magnetization    =     1.42 Bohr mag/cell

     convergence has been achieved in   1 iterations

     Using ACE for calculation of exact exchange

!!   total energy              =   -1715.14513821 Ry
     Harris-Foulkes estimate   =   -1715.14513825 Ry
     est. exchange err (dexx)  =       0.00000037 Ry
     - averaged Fock potential =     194.17796277 Ry
     + Fock energy (ACE)       =     -97.08864253 Ry

     EXX self-consistency reached

     Writing output data file C2Cn.save/
 
     init_run     :      2.70s CPU      2.91s WALL (       1 calls)
     electrons    :   1103.56s CPU   1118.24s WALL (       7 calls)

     Called by init_run:
     wfcinit      :      1.24s CPU      1.32s WALL (       1 calls)
     potinit      :      0.58s CPU      0.61s WALL (       1 calls)
     hinit0       :      0.55s CPU      0.56s WALL (       1 calls)

     Called by electrons:
     c_bands      :   1065.11s CPU   1074.91s WALL (      33 calls)
     sum_band     :     12.47s CPU     12.89s WALL (      33 calls)
     v_of_rho     :      4.97s CPU      5.11s WALL (      35 calls)
     newd         :      1.46s CPU      1.73s WALL (      34 calls)
     PAW_pot      :     10.49s CPU     10.62s WALL (      35 calls)
     mix_rho      :      0.30s CPU      0.34s WALL (      33 calls)

     Called by c_bands:
     init_us_2    :     19.47s CPU     19.84s WALL (    3578 calls)
     rcgdiagg     :   1042.86s CPU   1052.19s WALL (      73 calls)
     wfcrot       :     22.70s CPU     23.10s WALL (      61 calls)

     Called by sum_band:
     sum_band:bec :      0.04s CPU      0.04s WALL (      66 calls)
     addusdens    :      1.46s CPU      1.70s WALL (      33 calls)

     Called by *cgdiagg:
     h_psi        :    565.24s CPU    570.79s WALL (   67173 calls)
     s_psi        :    277.16s CPU    279.65s WALL (  134285 calls)
     rdiaghg      :      1.11s CPU      1.15s WALL (      61 calls)

     Called by h_psi:
     h_psi:pot    :    489.23s CPU    493.86s WALL (   67173 calls)
     h_psi:calbec :    173.86s CPU    175.31s WALL (   67173 calls)
     vloc_psi     :    168.25s CPU    170.52s WALL (   67173 calls)
     add_vuspsi   :    146.23s CPU    147.36s WALL (   67173 calls)
     hs_1psi      :    689.37s CPU    695.70s WALL (   67112 calls)
     s_1psi       :    285.44s CPU    287.61s WALL (   67112 calls)

     General routines
     calbec       :    367.77s CPU    371.31s WALL (  183041 calls)
     fft          :      2.64s CPU      2.67s WALL (     574 calls)
     ffts         :      0.18s CPU      0.18s WALL (      66 calls)
     fftw         :    158.86s CPU    160.98s WALL (  157640 calls)
     fftc         :   4590.77s CPU   4619.49s WALL (  672280 calls)
     fftcw        :      7.89s CPU      8.57s WALL (    6874 calls)
 
     Parallel routines
     fft_scatt_xy :     79.93s CPU     80.62s WALL (  837434 calls)
     fft_scatt_yz :   3877.27s CPU   3898.96s WALL (  837434 calls)

     EXX routines
     exx_grid     :      0.00s CPU      0.00s WALL (       1 calls)
     exxinit      :      4.29s CPU      4.45s WALL (       7 calls)
     vexx         :  45650.29s CPU  45863.51s WALL (      14 calls)
     matcalc      :     43.56s CPU     44.16s WALL (   48676 calls)
     aceupdate    :      0.09s CPU      0.10s WALL (      14 calls)
     vexxace      :     75.83s CPU     76.82s WALL (   48636 calls)
     aceinit      :  45651.14s CPU  45864.41s WALL (      14 calls)

     EXX+US  routines
     becxx        :      0.01s CPU      0.01s WALL (       7 calls)
     addusxx      :  20109.61s CPU  20194.92s WALL (  672280 calls)
     newdxx       :  19715.76s CPU  19801.56s WALL (  672280 calls)
     qvan_init    :      0.19s CPU      0.36s WALL (      14 calls)
     nlxx_pot     :     26.11s CPU     26.58s WALL (    3430 calls)

     EXX+PAW routines
     PAW_newdxx   :   1007.95s CPU   1015.80s WALL (  672280 calls)
 
     PWSCF        :     12h59m CPU     13h 3m WALL

 
   This run was terminated on:  19: 6:27  21Sep2021            

=------------------------------------------------------------------------------=
   JOB DONE.
=------------------------------------------------------------------------------=
